
.Version 9.6.2.38 of ABINIT 
.(MPI version, prepared for a aarch64_darwin21.6.0_gnu13.1 computer) 

.Copyright (C) 1998-2022 ABINIT group . 
 ABINIT comes with ABSOLUTELY NO WARRANTY.
 It is free software, and you are welcome to redistribute it
 under certain conditions (GNU General Public License,
 see ~abinit/COPYING or http://www.gnu.org/copyleft/gpl.txt).

 ABINIT is a project of the Universite Catholique de Louvain,
 Corning Inc. and other collaborators, see ~abinit/doc/developers/contributors.txt .
 Please read https://docs.abinit.org/theory/acknowledgments for suggested
 acknowledgments of the ABINIT effort.
 For more information, see https://www.abinit.org .

.Starting date : Mon 10 Jun 2024.
- ( at 13h51 )
  
- input  file    -> /Users/jbouquiaux/git/lumi_book/lumi_book/lumi/flow_deltaSCF/w0/t1/run.abi
- output file    -> /Users/jbouquiaux/git/lumi_book/lumi_book/lumi/flow_deltaSCF/w0/t1/run.abo
- root for input  files -> indata/in
- root for output files -> outdata/out

- inpspheads : Reading pseudopotential header in XML form from 
-   /Users/jbouquiaux/git/lumi_book/lumi_book/lumi/pseudos/Eu.xml
- inpspheads : Reading pseudopotential header in XML form from 
-   /Users/jbouquiaux/git/lumi_book/lumi_book/lumi/pseudos/Sr.xml
- inpspheads : Reading pseudopotential header in XML form from 
-   /Users/jbouquiaux/git/lumi_book/lumi_book/lumi/pseudos/Li.xml
- inpspheads : Reading pseudopotential header in XML form from 
-   /Users/jbouquiaux/git/lumi_book/lumi_book/lumi/pseudos/Al.xml
- inpspheads : Reading pseudopotential header in XML form from 
-   /Users/jbouquiaux/git/lumi_book/lumi_book/lumi/pseudos/N.xml
- inpspheads : Reading pseudopotential header in XML form from 
-   /Users/jbouquiaux/git/lumi_book/lumi_book/lumi/pseudos/O.xml
 Symmetries : space group P2/m (# 10); Bravais mP (primitive monocl.)
================================================================================
 Values of the parameters that define the memory need of the present run
     intxc =       0    ionmov =       2      iscf =      17    lmnmax =      32
     lnmax =       8     mgfft =      48  mpssoang =       4    mqgrid =    3180
     natom =      36  nloc_mem =       2    nspden =       2   nspinor =       1
    nsppol =       2      nsym =       4    n1xccc =       1    ntypat =       6
    occopt =       2   xclevel =       1
-    mband =         115        mffmem =           1         mkmem =           1
       mpw =        2369          nfft =       82944          nkpt =           1
Pmy_natom=        18
 PAW method is used; the additional fine FFT grid is defined by:
   mgfftf=        64    nfftf =    221184
================================================================================
P This job should need less than                     130.911 Mbytes of memory.
  Rough estimation (10% accuracy) of disk space for files :
_ WF disk file :      8.316 Mbytes ; DEN or POT disk file :      3.377 Mbytes.
================================================================================

--------------------------------------------------------------------------------
------------- Echo of variables that govern the present computation ------------
--------------------------------------------------------------------------------
-
- outvars: echo of selected default values                                      
-   iomode0 =  0 , fftalg0 =112 , wfoptalg0 = 10
-
- outvars: echo of global parameters not present in the input file              
-  max_nthreads =    0
-
 -outvars: echo values of preprocessed input variables --------
-          iomode           1
            acell      1.0000000000E+00  1.0000000000E+00  1.0000000000E+00 Bohr
              amu      1.51965000E+02  8.76200000E+01  6.94100000E+00
                       2.69815390E+01  1.40067400E+01  1.59994000E+01
       chkdilatmx           0
          chkprim           0
      chksymbreak           0
     densfor_pred           6
           diemac      5.00000000E+00
          dilatmx      1.05000000E+00
             ecut      1.00000000E+01 Hartree
           ecutsm      5.00000000E-01 Hartree
-          fftalg         112
           ionmov           2
           istwfk        2
              ixc       -1012
            jpawu      2.57245278E-02  0.00000000E+00  0.00000000E+00  0.00000000E+00  0.00000000E+00  0.00000000E+00 Hartree
         kptrlatt        1    0    0      0    1    0      0    0    1
          kptrlen      1.20337760E+01
            lpawu           3      -1      -1      -1      -1      -1
P           mkmem           1
            natom          36
            nband         115     115
            ngfft          48      48      36
          ngfftdg          64      64      54
             nkpt           1
-        np_spkpt           2
           nspden           2
           nsppol           2
            nstep         100
             nsym           4
            ntime        1000
           ntypat           6
              occ      1.000000  1.000000  1.000000  1.000000  1.000000  1.000000
                       1.000000  1.000000  1.000000  1.000000  1.000000  1.000000
                       1.000000  1.000000  1.000000  1.000000  1.000000  1.000000
                       1.000000  1.000000  1.000000  1.000000  1.000000  1.000000
                       1.000000  1.000000  1.000000  1.000000  1.000000  1.000000
                       1.000000  1.000000  1.000000  1.000000  1.000000  1.000000
                       1.000000  1.000000  1.000000  1.000000  1.000000  1.000000
                       1.000000  1.000000  1.000000  1.000000  1.000000  1.000000
                       1.000000  1.000000  1.000000  1.000000  1.000000  1.000000
                       1.000000  1.000000  1.000000  1.000000  1.000000  1.000000
                       1.000000  1.000000  1.000000  1.000000  1.000000  1.000000
                       1.000000  1.000000  1.000000  1.000000  1.000000  1.000000
                       1.000000  1.000000  1.000000  1.000000  1.000000  1.000000
                       1.000000  1.000000  1.000000  1.000000  1.000000  1.000000
                       1.000000  1.000000  1.000000  1.000000  1.000000  1.000000
                       1.000000  1.000000  1.000000  1.000000  0.000000  1.000000
                       0.000000  0.000000  0.000000  0.000000  0.000000  0.000000
                       0.000000  0.000000  0.000000  0.000000  0.000000  0.000000
                       0.000000  0.000000  0.000000  0.000000  0.000000  0.000000
                       0.000000
                       1.000000  1.000000  1.000000  1.000000  1.000000  1.000000
                       1.000000  1.000000  1.000000  1.000000  1.000000  1.000000
                       1.000000  1.000000  1.000000  1.000000  1.000000  1.000000
                       1.000000  1.000000  1.000000  1.000000  1.000000  1.000000
                       1.000000  1.000000  1.000000  1.000000  1.000000  1.000000
                       1.000000  1.000000  1.000000  1.000000  1.000000  1.000000
                       1.000000  1.000000  1.000000  1.000000  1.000000  1.000000
                       1.000000  1.000000  1.000000  1.000000  1.000000  1.000000
                       1.000000  1.000000  1.000000  1.000000  1.000000  1.000000
                       1.000000  1.000000  1.000000  1.000000  1.000000  1.000000
                       1.000000  1.000000  1.000000  1.000000  1.000000  1.000000
                       1.000000  1.000000  1.000000  1.000000  1.000000  1.000000
                       1.000000  1.000000  1.000000  1.000000  1.000000  1.000000
                       1.000000  1.000000  1.000000  1.000000  1.000000  1.000000
                       1.000000  1.000000  1.000000  1.000000  0.000000  0.000000
                       0.000000  0.000000  0.000000  0.000000  0.000000  0.000000
                       0.000000  0.000000  0.000000  0.000000  0.000000  0.000000
                       0.000000  0.000000  0.000000  0.000000  0.000000  0.000000
                       0.000000  0.000000  0.000000  0.000000  0.000000  0.000000
                       0.000000
           occopt           2
        optforces           1
        paral_kgb           1
        pawecutdg      2.00000000E+01 Hartree
            prtwf          -1
            rprim      1.5040330226E+01  0.0000000000E+00  0.0000000000E+00
                       0.0000000000E+00  1.5040330226E+01  0.0000000000E+00
                       0.0000000000E+00  0.0000000000E+00  1.2033775962E+01
          spgroup          10
           spinat      0.0000000000E+00  0.0000000000E+00  7.0000000000E+00
                       0.0000000000E+00  0.0000000000E+00  0.0000000000E+00
                       0.0000000000E+00  0.0000000000E+00  0.0000000000E+00
                       0.0000000000E+00  0.0000000000E+00  0.0000000000E+00
                       0.0000000000E+00  0.0000000000E+00  0.0000000000E+00
                       0.0000000000E+00  0.0000000000E+00  0.0000000000E+00
                       0.0000000000E+00  0.0000000000E+00  0.0000000000E+00
                       0.0000000000E+00  0.0000000000E+00  0.0000000000E+00
                       0.0000000000E+00  0.0000000000E+00  0.0000000000E+00
                       0.0000000000E+00  0.0000000000E+00  0.0000000000E+00
                       0.0000000000E+00  0.0000000000E+00  0.0000000000E+00
                       0.0000000000E+00  0.0000000000E+00  0.0000000000E+00
                       0.0000000000E+00  0.0000000000E+00  0.0000000000E+00
                       0.0000000000E+00  0.0000000000E+00  0.0000000000E+00
                       0.0000000000E+00  0.0000000000E+00  0.0000000000E+00
                       0.0000000000E+00  0.0000000000E+00  0.0000000000E+00
                       0.0000000000E+00  0.0000000000E+00  0.0000000000E+00
                       0.0000000000E+00  0.0000000000E+00  0.0000000000E+00
                       0.0000000000E+00  0.0000000000E+00  0.0000000000E+00
                       0.0000000000E+00  0.0000000000E+00  0.0000000000E+00
                       0.0000000000E+00  0.0000000000E+00  0.0000000000E+00
                       0.0000000000E+00  0.0000000000E+00  0.0000000000E+00
                       0.0000000000E+00  0.0000000000E+00  0.0000000000E+00
                       0.0000000000E+00  0.0000000000E+00  0.0000000000E+00
                       0.0000000000E+00  0.0000000000E+00  0.0000000000E+00
                       0.0000000000E+00  0.0000000000E+00  0.0000000000E+00
                       0.0000000000E+00  0.0000000000E+00  0.0000000000E+00
                       0.0000000000E+00  0.0000000000E+00  0.0000000000E+00
                       0.0000000000E+00  0.0000000000E+00  0.0000000000E+00
                       0.0000000000E+00  0.0000000000E+00  0.0000000000E+00
                       0.0000000000E+00  0.0000000000E+00  0.0000000000E+00
                       0.0000000000E+00  0.0000000000E+00  0.0000000000E+00
                       0.0000000000E+00  0.0000000000E+00  0.0000000000E+00
                       0.0000000000E+00  0.0000000000E+00  0.0000000000E+00
                       0.0000000000E+00  0.0000000000E+00  0.0000000000E+00
                       0.0000000000E+00  0.0000000000E+00  0.0000000000E+00
           symrel      1  0  0   0  1  0   0  0  1      -1  0  0   0 -1  0   0  0 -1
                      -1  0  0   0 -1  0   0  0  1       1  0  0   0  1  0   0  0 -1
            tnons      0.0000000  0.0000000  0.0000000    -0.0000000  0.0000000  0.5000000
                      -0.0000000  0.0000000  0.0000000     0.0000000  0.0000000  0.5000000
           toldff      1.00000000E-04
           tolmxf      1.00000000E-03
            typat      1  2  2  2  3  3  3  3  3  3  3  3  4  4  4  4  4  4  4  4
                       5  5  5  5  5  5  5  5  6  6  6  6  6  6  6  6
            upawu      2.57245278E-01  0.00000000E+00  0.00000000E+00  0.00000000E+00  0.00000000E+00  0.00000000E+00 Hartree
          usepawu           1
           useylm           1
         wfoptalg         114
           xangst      3.9794999826E+00  0.0000000000E+00  1.5919999931E+00
                       3.9794999826E+00  0.0000000000E+00  4.7759999793E+00
                      -4.4181325072E-16  3.9794999826E+00  7.5719328465E-04
                      -4.4181325072E-16  3.9794999826E+00  3.1832427929E+00
                       1.0143247787E+00  6.5690571807E+00  1.5919999931E+00
                       1.0111621849E+00  6.5663566220E+00  4.7759999793E+00
                       6.9446751865E+00  1.3899427846E+00  1.5919999931E+00
                       6.9478377803E+00  1.3926433433E+00  4.7759999793E+00
                       1.3927589215E+00  1.0130984918E+00  1.8301359443E-03
                       1.3927589215E+00  1.0130984918E+00  3.1821698502E+00
                       6.5662410438E+00  6.9459014734E+00  1.8301359443E-03
                       6.5662410438E+00  6.9459014734E+00  3.1821698502E+00
                       2.7994832606E+00  5.4313804085E+00  1.3556938181E-03
                       2.7994832606E+00  5.4313804085E+00  3.1826442924E+00
                       5.1595167046E+00  2.5276195568E+00  1.3556938181E-03
                       5.1595167046E+00  2.5276195568E+00  3.1826442924E+00
                       2.5294160873E+00  2.7943317518E+00  1.5919999931E+00
                       2.5291677168E+00  2.7979241244E+00  4.7759999793E+00
                       5.4295838779E+00  5.1646682135E+00  1.5919999931E+00
                       5.4298322485E+00  5.1610758409E+00  4.7759999793E+00
                       4.6504816075E+00  5.8173135707E+00 -4.5713082027E-04
                       4.6504816075E+00  5.8173135707E+00  3.1844571170E+00
                       3.3085183577E+00  2.1416863945E+00 -4.5713082027E-04
                       3.3085183577E+00  2.1416863945E+00  3.1844571170E+00
                       2.1504989180E+00  4.6488692932E+00  1.5919999931E+00
                       2.1522159784E+00  4.6510079274E+00  4.7759999793E+00
                       5.8085010472E+00  3.3101306721E+00  1.5919999931E+00
                       5.8067839869E+00  3.3079920378E+00  4.7759999793E+00
                       2.0097207164E+00  7.0596015932E+00 -5.2637374477E-04
                       2.0097207164E+00  7.0596015932E+00  3.1845263599E+00
                       5.9492792488E+00  8.9939837204E-01 -5.2637374477E-04
                       5.9492792488E+00  8.9939837204E-01  3.1845263599E+00
                       8.9776047273E-01  2.0143457932E+00  1.5919999931E+00
                       8.9722774423E-01  2.0175379077E+00  4.7759999793E+00
                       7.0612394925E+00  5.9446541721E+00  1.5919999931E+00
                       7.0617722210E+00  5.9414620576E+00  4.7759999793E+00
            xcart      7.5201651130E+00  0.0000000000E+00  3.0084439905E+00
                       7.5201651130E+00  0.0000000000E+00  9.0253319715E+00
                      -8.3490604574E-16  7.5201651130E+00  1.4308879376E-03
                      -8.3490604574E-16  7.5201651130E+00  6.0154570931E+00
                       1.9167960416E+00  1.2413719023E+01  3.0084439905E+00
                       1.9108196055E+00  1.2408615706E+01  9.0253319715E+00
                       1.3123534184E+01  2.6266112032E+00  3.0084439905E+00
                       1.3129510621E+01  2.6317145196E+00  9.0253319715E+00
                       2.6319329307E+00  1.9144786952E+00  3.4584557208E-03
                       2.6319329307E+00  1.9144786952E+00  6.0134295253E+00
                       1.2408397295E+01  1.3125851531E+01  3.4584557208E-03
                       1.2408397295E+01  1.3125851531E+01  6.0134295253E+00
                       5.2902566762E+00  1.0263821496E+01  2.5618900362E-03
                       5.2902566762E+00  1.0263821496E+01  6.0143260910E+00
                       9.7500735498E+00  4.7765087304E+00  2.5618900362E-03
                       9.7500735498E+00  4.7765087304E+00  6.0143260910E+00
                       4.7799036812E+00  5.2805217353E+00  3.0084439905E+00
                       4.7794343288E+00  5.2873103357E+00  9.0253319715E+00
                       1.0260426545E+01  9.7598084907E+00  3.0084439905E+00
                       1.0260895897E+01  9.7530198903E+00  9.0253319715E+00
                       8.7881366242E+00  1.0993129478E+01 -8.6385205721E-04
                       8.7881366242E+00  1.0993129478E+01  6.0177518331E+00
                       6.2521936018E+00  4.0472007482E+00 -8.6385205721E-04
                       6.2521936018E+00  4.0472007482E+00  6.0177518331E+00
                       4.0638540042E+00  8.7850897917E+00  3.0084439905E+00
                       4.0670987779E+00  8.7891312247E+00  9.0253319715E+00
                       1.0976476222E+01  6.2552404343E+00  3.0084439905E+00
                       1.0973231448E+01  6.2511990013E+00  9.0253319715E+00
                       3.7978217576E+00  1.3340713618E+01 -9.9470222116E-04
                       3.7978217576E+00  1.3340713618E+01  6.0178826832E+00
                       1.1242508468E+01  1.6996166075E+00 -9.9470222116E-04
                       1.1242508468E+01  1.6996166075E+00  6.0178826832E+00
                       1.6965214264E+00  3.8065618860E+00  3.0084439905E+00
                       1.6955147154E+00  3.8125941083E+00  9.0253319715E+00
                       1.3343808800E+01  1.1233768340E+01  3.0084439905E+00
                       1.3344815511E+01  1.1227736118E+01  9.0253319715E+00
             xred      5.0000000000E-01  0.0000000000E+00  2.5000000000E-01
                       5.0000000000E-01  0.0000000000E+00  7.5000000000E-01
                      -5.5511151231E-17  5.0000000000E-01  1.1890598115E-04
                      -5.5511151231E-17  5.0000000000E-01  4.9988109402E-01
                       1.2744374710E-01  8.2536213210E-01  2.5000000000E-01
                       1.2704638640E-01  8.2502282330E-01  7.5000000000E-01
                       8.7255625290E-01  1.7463786790E-01  2.5000000000E-01
                       8.7295361360E-01  1.7497717670E-01  7.5000000000E-01
                       1.7499169840E-01  1.2728967160E-01  2.8739572115E-04
                       1.7499169840E-01  1.2728967160E-01  4.9971260428E-01
                       8.2500830160E-01  8.7271032840E-01  2.8739572115E-04
                       8.2500830160E-01  8.7271032840E-01  4.9971260428E-01
                       3.5173806670E-01  6.8241995630E-01  2.1289161808E-04
                       3.5173806670E-01  6.8241995630E-01  4.9978710838E-01
                       6.4826193330E-01  3.1758004370E-01  2.1289161808E-04
                       6.4826193330E-01  3.1758004370E-01  4.9978710838E-01
                       3.1780576685E-01  3.5109081090E-01  2.5000000000E-01
                       3.1777456060E-01  3.5154217070E-01  7.5000000000E-01
                       6.8219423315E-01  6.4890918910E-01  2.5000000000E-01
                       6.8222543940E-01  6.4845782930E-01  7.5000000000E-01
                       5.8430476540E-01  7.3091011385E-01 -7.1785619073E-05
                       5.8430476540E-01  7.3091011385E-01  5.0007178562E-01
                       4.1569523460E-01  2.6908988615E-01 -7.1785619073E-05
                       4.1569523460E-01  2.6908988615E-01  5.0007178562E-01
                       2.7019712620E-01  5.8410218790E-01  2.5000000000E-01
                       2.7041286440E-01  5.8437089430E-01  7.5000000000E-01
                       7.2980287380E-01  4.1589781210E-01  2.5000000000E-01
                       7.2958713560E-01  4.1562910570E-01  7.5000000000E-01
                       2.5250920030E-01  8.8699605780E-01 -8.2659193947E-05
                       2.5250920030E-01  8.8699605780E-01  5.0008265919E-01
                       7.4749079970E-01  1.1300394220E-01 -8.2659193947E-05
                       7.4749079970E-01  1.1300394220E-01  5.0008265919E-01
                       1.1279815010E-01  2.5309031310E-01  2.5000000000E-01
                       1.1273121600E-01  2.5349138290E-01  7.5000000000E-01
                       8.8720184990E-01  7.4690968690E-01  2.5000000000E-01
                       8.8726878400E-01  7.4650861710E-01  7.5000000000E-01
            znucl       63.00000   38.00000    3.00000   13.00000    7.00000    8.00000

================================================================================

 chkinp: Checking input parameters for consistency.

================================================================================
== DATASET  1 ==================================================================
-   mpi_nproc: 2, omp_nthreads: -1 (-1 if OMP is not activated)


--- !DatasetInfo
iteration_state: {dtset: 1, }
dimensions: {natom: 36, nkpt: 1, mband: 115, nsppol: 2, nspinor: 1, nspden: 2, mpw: 2369, }
cutoff_energies: {ecut:  10.0, pawecutdg:  20.0, }
electrons: {nelect:   1.83000000E+02, charge:   0.00000000E+00, occopt:   2.00000000E+00, tsmear:   1.00000000E-02, }
meta: {optdriver: 0, ionmov: 2, optcell: 0, iscf: 17, paral_kgb: 1, }
...

 Real(R)+Recip(G) space primitive vectors, cartesian coordinates (Bohr,Bohr^-1):
 R(1)= 15.0403302  0.0000000  0.0000000  G(1)=  0.0664879  0.0000000  0.0000000
 R(2)=  0.0000000 15.0403302  0.0000000  G(2)=  0.0000000  0.0664879  0.0000000
 R(3)=  0.0000000  0.0000000 12.0337760  G(3)=  0.0000000  0.0000000  0.0830994
 Unit cell volume ucvol=  2.7221789E+03 bohr^3
 Angles (23,13,12)=  9.00000000E+01  9.00000000E+01  9.00000000E+01 degrees

 Coarse grid specifications (used for wave-functions):

 getcut: wavevector=  0.0000  0.0000  0.0000  ngfft=  48  48  36
         ecut(hartree)=     11.025   => boxcut(ratio)=   2.00146

 Fine grid specifications (used for densities):

 getcut: wavevector=  0.0000  0.0000  0.0000  ngfft=  64  64  54
         ecut(hartree)=     22.050   => boxcut(ratio)=   2.01304

--- Pseudopotential description ------------------------------------------------
- pspini: atom type   1  psp file is /Users/jbouquiaux/git/lumi_book/lumi_book/lumi/pseudos/Eu.xml
- pspatm: opening atomic psp file    /Users/jbouquiaux/git/lumi_book/lumi_book/lumi/pseudos/Eu.xml
- pspatm : Reading pseudopotential header in XML form from /Users/jbouquiaux/git/lumi_book/lumi_book/lumi/pseudos/Eu.xml
 Pseudopotential format is: paw10
 basis_size (lnmax)=  8 (lmn_size= 32), orbitals=   0   0   1   1   2   2   3   3
 Spheres core radius: rc_sph= 2.52170005
 1 radial meshes are used:
  - mesh 1: r(i)=AA*[exp(BB*(i-1))-1], size=1500 , AA= 0.14034E-03 BB= 0.88415E-02
 Shapefunction is SIN type: shapef(r)=[sin(pi*r/rshp)/(pi*r/rshp)]**2
 Radius for shape functions =  2.30830346
 mmax= 1500
 Radial grid used for partial waves is grid 1
 Radial grid used for projectors is grid 1
 Radial grid used for (t)core density is grid 1
 Radial grid used for Vloc is grid 1
 Radial grid used for pseudo valence density is grid 1
 Mesh size for Vloc has been set to 1343 to avoid numerical noise.
 Compensation charge density is not taken into account in XC energy/potential
 pspatm: atomic psp has been read  and splines computed

- pspini: atom type   2  psp file is /Users/jbouquiaux/git/lumi_book/lumi_book/lumi/pseudos/Sr.xml
- pspatm: opening atomic psp file    /Users/jbouquiaux/git/lumi_book/lumi_book/lumi/pseudos/Sr.xml
- pspatm : Reading pseudopotential header in XML form from /Users/jbouquiaux/git/lumi_book/lumi_book/lumi/pseudos/Sr.xml
 Pseudopotential format is: paw10
 basis_size (lnmax)=  6 (lmn_size= 18), orbitals=   0   0   1   1   2   2
 Spheres core radius: rc_sph= 2.20669967
 1 radial meshes are used:
  - mesh 1: r(i)=AA*[exp(BB*(i-1))-1], size=1500 , AA= 0.22443E-03 BB= 0.85283E-02
 Shapefunction is SIN type: shapef(r)=[sin(pi*r/rshp)/(pi*r/rshp)]**2
 Radius for shape functions =  1.81361893
 mmax= 1500
 Radial grid used for partial waves is grid 1
 Radial grid used for projectors is grid 1
 Radial grid used for (t)core density is grid 1
 Radial grid used for Vloc is grid 1
 Radial grid used for pseudo valence density is grid 1
 Mesh size for Vloc has been set to 1337 to avoid numerical noise.
 Compensation charge density is not taken into account in XC energy/potential
 pspatm: atomic psp has been read  and splines computed

- pspini: atom type   3  psp file is /Users/jbouquiaux/git/lumi_book/lumi_book/lumi/pseudos/Li.xml
- pspatm: opening atomic psp file    /Users/jbouquiaux/git/lumi_book/lumi_book/lumi/pseudos/Li.xml
- pspatm : Reading pseudopotential header in XML form from /Users/jbouquiaux/git/lumi_book/lumi_book/lumi/pseudos/Li.xml
 Pseudopotential format is: paw10
 basis_size (lnmax)=  5 (lmn_size=  9), orbitals=   0   0   0   1   1
 Spheres core radius: rc_sph= 1.60264751
 1 radial meshes are used:
  - mesh 1: r(i)=AA*[exp(BB*(i-1))-1], size=2001 , AA= 0.17851E-02 BB= 0.53552E-02
 Shapefunction is BESSEL type: shapef(r,l)=aa(1,l)*jl(q(1,l)*r)+aa(2,l)*jl(q(2,l)*r)
 Radius for shape functions =  1.30023672
 mmax= 2001
 Radial grid used for partial waves is grid 1
 Radial grid used for projectors is grid 1
 Radial grid used for (t)core density is grid 1
 Radial grid used for Vloc is grid 1
 Radial grid used for pseudo valence density is grid 1
 Mesh size for Vloc has been set to 1742 to avoid numerical noise.
 Compensation charge density is not taken into account in XC energy/potential
 pspatm: atomic psp has been read  and splines computed

- pspini: atom type   4  psp file is /Users/jbouquiaux/git/lumi_book/lumi_book/lumi/pseudos/Al.xml
- pspatm: opening atomic psp file    /Users/jbouquiaux/git/lumi_book/lumi_book/lumi/pseudos/Al.xml
- pspatm : Reading pseudopotential header in XML form from /Users/jbouquiaux/git/lumi_book/lumi_book/lumi/pseudos/Al.xml
 Pseudopotential format is: paw10
 basis_size (lnmax)=  4 (lmn_size=  8), orbitals=   0   0   1   1
 Spheres core radius: rc_sph= 1.90363307
 1 radial meshes are used:
  - mesh 1: r(i)=AA*[exp(BB*(i-1))-1], size=2001 , AA= 0.46377E-03 BB= 0.60291E-02
 Shapefunction is SIN type: shapef(r)=[sin(pi*r/rshp)/(pi*r/rshp)]**2
 Radius for shape functions =  1.60786206
 mmax= 2001
 Radial grid used for partial waves is grid 1
 Radial grid used for projectors is grid 1
 Radial grid used for (t)core density is grid 1
 Radial grid used for Vloc is grid 1
 Radial grid used for pseudo valence density is grid 1
 Mesh size for Vloc has been set to 1771 to avoid numerical noise.
 Compensation charge density is not taken into account in XC energy/potential
 pspatm: atomic psp has been read  and splines computed

- pspini: atom type   5  psp file is /Users/jbouquiaux/git/lumi_book/lumi_book/lumi/pseudos/N.xml
- pspatm: opening atomic psp file    /Users/jbouquiaux/git/lumi_book/lumi_book/lumi/pseudos/N.xml
- pspatm : Reading pseudopotential header in XML form from /Users/jbouquiaux/git/lumi_book/lumi_book/lumi/pseudos/N.xml
 Pseudopotential format is: paw10
 basis_size (lnmax)=  4 (lmn_size=  8), orbitals=   0   0   1   1
 Spheres core radius: rc_sph= 1.20000000
 1 radial meshes are used:
  - mesh 1: r(i)=AA*[exp(BB*(i-1))-1], size= 787 , AA= 0.19344E-02 BB= 0.13541E-01
 Shapefunction is SIN type: shapef(r)=[sin(pi*r/rshp)/(pi*r/rshp)]**2
 Radius for shape functions =  1.00599851
 mmax=  787
 Radial grid used for partial waves is grid 1
 Radial grid used for projectors is grid 1
 Radial grid used for (t)core density is grid 1
 Radial grid used for Vloc is grid 1
 Radial grid used for pseudo valence density is grid 1
 Mesh size for Vloc has been set to  683 to avoid numerical noise.
 Compensation charge density is not taken into account in XC energy/potential
 pspatm: atomic psp has been read  and splines computed

- pspini: atom type   6  psp file is /Users/jbouquiaux/git/lumi_book/lumi_book/lumi/pseudos/O.xml
- pspatm: opening atomic psp file    /Users/jbouquiaux/git/lumi_book/lumi_book/lumi/pseudos/O.xml
- pspatm : Reading pseudopotential header in XML form from /Users/jbouquiaux/git/lumi_book/lumi_book/lumi/pseudos/O.xml
 Pseudopotential format is: paw10
 basis_size (lnmax)=  4 (lmn_size=  8), orbitals=   0   0   1   1
 Spheres core radius: rc_sph= 1.41465230
 1 radial meshes are used:
  - mesh 1: r(i)=AA*[exp(BB*(i-1))-1], size=2001 , AA= 0.72565E-03 BB= 0.58052E-02
 Shapefunction is SIN type: shapef(r)=[sin(pi*r/rshp)/(pi*r/rshp)]**2
 Radius for shape functions =  1.20231231
 mmax= 2001
 Radial grid used for partial waves is grid 1
 Radial grid used for projectors is grid 1
 Radial grid used for (t)core density is grid 1
 Radial grid used for Vloc is grid 1
 Radial grid used for pseudo valence density is grid 1
 Mesh size for Vloc has been set to 1762 to avoid numerical noise.
 Compensation charge density is not taken into account in XC energy/potential
 pspatm: atomic psp has been read  and splines computed

   4.06209126E+04                                ecore*ucvol(ha*bohr**3)
--------------------------------------------------------------------------------

_setup2: Arith. and geom. avg. npw (full set) are    4737.000    4737.000


 ******************************************
 DFT+U Method used: FLL
 ******************************************

================================================================================

=== [ionmov= 2] Broyden-Fletcher-Goldfard-Shanno method (forces)            
================================================================================

--- Iteration: (   1/1000) Internal Cycle: (1/1)
--------------------------------------------------------------------------------

---SELF-CONSISTENT-FIELD CONVERGENCE--------------------------------------------

--- !BeginCycle
iteration_state: {dtset: 1, itime: 1, icycle: 1, }
solver: {iscf: 17, nstep: 100, nline: 4, wfoptalg: 114, }
tolerances: {toldff: 1.00E-04, }
...

     iter   Etot(hartree)      deltaE(h)  residm     nres2    diffor    maxfor
 ETOT  1  -491.75160245089    -4.918E+02 5.219E-02 4.980E+02 2.123E+03 2.123E+03
 ETOT  2  -505.73721670126    -1.399E+01 3.609E-03 2.264E+03 2.123E+03 1.288E-01
 ETOT  3  -472.45093148472     3.329E+01 3.154E-01 7.529E+01 1.316E-01 7.392E-02
 ETOT  4  -475.57528241550    -3.124E+00 1.374E-02 4.547E+02 1.045E-01 5.582E-02
 ETOT  5  -474.62400897816     9.513E-01 1.396E-02 2.353E+01 5.125E-02 2.938E-02
 ETOT  6  -475.12158845692    -4.976E-01 2.515E-03 1.021E+01 2.675E-02 9.214E-03
 ETOT  7  -475.18053627962    -5.895E-02 1.697E-03 6.414E+00 9.693E-03 7.580E-03
 ETOT  8  -475.40441748706    -2.239E-01 2.972E-03 9.832E+01 1.106E-02 9.470E-03
 ETOT  9  -474.99047717355     4.139E-01 6.461E-03 4.777E+00 1.156E-02 8.425E-03
 ETOT 10  -475.08548463362    -9.501E-02 3.453E-03 3.914E+00 7.763E-03 9.040E-03
 ETOT 11  -475.10375058674    -1.827E-02 1.069E-03 3.109E+00 5.956E-03 6.292E-03
 ETOT 12  -475.08798461522     1.577E-02 1.074E-03 2.907E+00 6.272E-03 9.007E-03
 ETOT 13  -475.10737077282    -1.939E-02 1.668E-02 8.190E+01 3.094E-02 3.318E-02
 ETOT 14  -475.09086627606     1.650E-02 3.259E-03 2.464E+00 2.968E-02 8.136E-03
 ETOT 15  -475.13248509317    -4.162E-02 3.463E-04 2.452E+00 7.647E-03 7.829E-03
 ETOT 16  -475.13800540672    -5.520E-03 3.675E-05 1.770E+00 2.248E-03 6.797E-03
 ETOT 17  -475.15986468129    -2.186E-02 1.729E-03 1.011E+01 8.329E-03 8.651E-03
 ETOT 18  -475.16927713423    -9.412E-03 7.026E-05 9.234E+00 3.350E-03 8.719E-03
 ETOT 19  -475.15561993275     1.366E-02 1.686E-04 8.405E+00 1.838E-03 9.017E-03
 ETOT 20  -475.15201670360     3.603E-03 7.354E-05 4.835E-01 7.481E-03 6.898E-03
 ETOT 21  -475.14839051154     3.626E-03 8.257E-04 2.076E-01 4.239E-03 6.277E-03
 ETOT 22  -475.15204111233    -3.651E-03 2.668E-04 2.849E-01 2.162E-03 7.663E-03
 ETOT 23  -475.15542368459    -3.383E-03 3.933E-05 3.657E-01 2.082E-03 8.116E-03
 ETOT 24  -475.15614074853    -7.171E-04 3.182E-05 3.242E-01 1.009E-03 7.963E-03
 ETOT 25  -475.15644181663    -3.011E-04 1.800E-05 3.082E-01 3.149E-04 8.002E-03
 ETOT 26  -475.15711642881    -6.746E-04 2.469E-05 2.919E-01 2.544E-04 7.777E-03
 ETOT 27  -475.15750375777    -3.873E-04 1.388E-05 2.606E-01 2.005E-04 7.815E-03
 ETOT 28  -475.15191570921     5.588E-03 1.288E-03 8.753E-02 3.293E-03 5.769E-03
 ETOT 29  -475.15798043669    -6.065E-03 8.807E-05 1.019E-02 2.581E-03 6.607E-03
 ETOT 30  -475.15832207583    -3.416E-04 1.366E-05 2.079E-03 5.115E-04 6.683E-03
 ETOT 31  -475.15865655145    -3.345E-04 1.307E-05 1.132E-03 3.892E-04 6.605E-03
 ETOT 32  -475.15890461795    -2.481E-04 5.871E-06 4.898E-04 1.838E-04 6.618E-03
 ETOT 33  -475.15907709076    -1.725E-04 1.111E-05 3.346E-04 9.931E-05 6.638E-03
 ETOT 34  -475.15922604596    -1.490E-04 4.304E-06 2.095E-04 7.769E-05 6.586E-03

 At SCF step   34, forces are converged : 
  for the second time, max diff in force=  7.769E-05 < toldff=  1.000E-04

 Cartesian components of stress tensor (hartree/bohr^3)
  sigma(1 1)=  4.14668857E-04  sigma(3 2)=  0.00000000E+00
  sigma(2 2)=  4.36499217E-04  sigma(3 1)=  0.00000000E+00
  sigma(3 3)=  4.34059561E-05  sigma(2 1)= -4.57478669E-06


--- !ResultsGS
iteration_state: {dtset: 1, itime: 1, icycle: 1, }
comment   : Summary of ground state results
lattice_vectors:
- [ 15.0403302,   0.0000000,   0.0000000, ]
- [  0.0000000,  15.0403302,   0.0000000, ]
- [  0.0000000,   0.0000000,  12.0337760, ]
lattice_lengths: [  15.04033,   15.04033,   12.03378, ]
lattice_angles: [ 90.000,  90.000,  90.000, ] # degrees, (23, 13, 12)
lattice_volume:   2.7221789E+03
convergence: {deltae: -1.490E-04, res2:  2.095E-04, residm:  4.304E-06, diffor:  7.769E-05, }
etotal    :  -4.75159226E+02
entropy   :   0.00000000E+00
fermie    :   2.62602115E-01
cartesian_stress_tensor: # hartree/bohr^3
- [  4.14668857E-04,  -4.57478669E-06,   0.00000000E+00, ]
- [ -4.57478669E-06,   4.36499217E-04,   0.00000000E+00, ]
- [  0.00000000E+00,   0.00000000E+00,   4.34059561E-05, ]
pressure_GPa:  -8.7731E+00
xred      :
- [  5.0000E-01,   0.0000E+00,   2.5000E-01, Eu]
- [  5.0000E-01,   0.0000E+00,   7.5000E-01, Sr]
- [ -5.5511E-17,   5.0000E-01,   1.1891E-04, Sr]
- [ -5.5511E-17,   5.0000E-01,   4.9988E-01, Sr]
- [  1.2744E-01,   8.2536E-01,   2.5000E-01, Li]
- [  1.2705E-01,   8.2502E-01,   7.5000E-01, Li]
- [  8.7256E-01,   1.7464E-01,   2.5000E-01, Li]
- [  8.7295E-01,   1.7498E-01,   7.5000E-01, Li]
- [  1.7499E-01,   1.2729E-01,   2.8740E-04, Li]
- [  1.7499E-01,   1.2729E-01,   4.9971E-01, Li]
- [  8.2501E-01,   8.7271E-01,   2.8740E-04, Li]
- [  8.2501E-01,   8.7271E-01,   4.9971E-01, Li]
- [  3.5174E-01,   6.8242E-01,   2.1289E-04, Al]
- [  3.5174E-01,   6.8242E-01,   4.9979E-01, Al]
- [  6.4826E-01,   3.1758E-01,   2.1289E-04, Al]
- [  6.4826E-01,   3.1758E-01,   4.9979E-01, Al]
- [  3.1781E-01,   3.5109E-01,   2.5000E-01, Al]
- [  3.1777E-01,   3.5154E-01,   7.5000E-01, Al]
- [  6.8219E-01,   6.4891E-01,   2.5000E-01, Al]
- [  6.8223E-01,   6.4846E-01,   7.5000E-01, Al]
- [  5.8430E-01,   7.3091E-01,  -7.1786E-05,  N]
- [  5.8430E-01,   7.3091E-01,   5.0007E-01,  N]
- [  4.1570E-01,   2.6909E-01,  -7.1786E-05,  N]
- [  4.1570E-01,   2.6909E-01,   5.0007E-01,  N]
- [  2.7020E-01,   5.8410E-01,   2.5000E-01,  N]
- [  2.7041E-01,   5.8437E-01,   7.5000E-01,  N]
- [  7.2980E-01,   4.1590E-01,   2.5000E-01,  N]
- [  7.2959E-01,   4.1563E-01,   7.5000E-01,  N]
- [  2.5251E-01,   8.8700E-01,  -8.2659E-05,  O]
- [  2.5251E-01,   8.8700E-01,   5.0008E-01,  O]
- [  7.4749E-01,   1.1300E-01,  -8.2659E-05,  O]
- [  7.4749E-01,   1.1300E-01,   5.0008E-01,  O]
- [  1.1280E-01,   2.5309E-01,   2.5000E-01,  O]
- [  1.1273E-01,   2.5349E-01,   7.5000E-01,  O]
- [  8.8720E-01,   7.4691E-01,   2.5000E-01,  O]
- [  8.8727E-01,   7.4651E-01,   7.5000E-01,  O]
cartesian_forces: # hartree/bohr
- [ -1.35525272E-20,  -6.58803403E-21,  -0.00000000E+00, ]
- [ -1.35525272E-20,  -6.58803403E-21,  -0.00000000E+00, ]
- [ -1.35525272E-20,  -6.58803406E-21,   5.64519420E-04, ]
- [ -1.35525272E-20,  -6.58803401E-21,  -5.64519420E-04, ]
- [ -5.79942194E-04,  -7.96147859E-04,  -0.00000000E+00, ]
- [ -3.15101364E-05,   5.64214925E-05,  -3.35635951E-29, ]
- [  5.79942194E-04,   7.96147859E-04,  -0.00000000E+00, ]
- [  3.15101364E-05,  -5.64214925E-05,   3.35635951E-29, ]
- [  4.79111054E-06,   9.95943533E-05,  -8.04948903E-04, ]
- [  4.79111054E-06,   9.95943533E-05,   8.04948903E-04, ]
- [ -4.79111054E-06,  -9.95943533E-05,  -8.04948903E-04, ]
- [ -4.79111054E-06,  -9.95943533E-05,   8.04948903E-04, ]
- [  7.73682348E-04,   6.74389839E-04,   5.18366076E-04, ]
- [  7.73682348E-04,   6.74389839E-04,  -5.18366076E-04, ]
- [ -7.73682348E-04,  -6.74389839E-04,   5.18366076E-04, ]
- [ -7.73682348E-04,  -6.74389839E-04,  -5.18366076E-04, ]
- [ -6.13076016E-04,   2.49272696E-03,  -0.00000000E+00, ]
- [ -1.23845356E-03,  -2.43380728E-03,  -0.00000000E+00, ]
- [  6.13076016E-04,  -2.49272696E-03,  -0.00000000E+00, ]
- [  1.23845356E-03,   2.43380728E-03,  -0.00000000E+00, ]
- [ -1.95043868E-03,   5.36355601E-03,   5.64575167E-03, ]
- [ -1.95043868E-03,   5.36355601E-03,  -5.64575167E-03, ]
- [  1.95043868E-03,  -5.36355601E-03,   5.64575167E-03, ]
- [  1.95043868E-03,  -5.36355601E-03,  -5.64575167E-03, ]
- [ -1.91167050E-03,  -1.38560969E-03,  -0.00000000E+00, ]
- [  3.44920443E-05,  -1.79915431E-03,  -5.37017521E-28, ]
- [  1.91167050E-03,   1.38560969E-03,  -0.00000000E+00, ]
- [ -3.44920443E-05,   1.79915431E-03,   5.37017521E-28, ]
- [  2.48518591E-03,   5.59945558E-04,   6.58624877E-03, ]
- [  2.48518591E-03,   5.59945558E-04,  -6.58624877E-03, ]
- [ -2.48518591E-03,  -5.59945558E-04,   6.58624877E-03, ]
- [ -2.48518591E-03,  -5.59945558E-04,  -6.58624877E-03, ]
- [  8.24976274E-04,  -8.83224586E-04,  -0.00000000E+00, ]
- [ -8.23808462E-05,   2.34983418E-05,  -0.00000000E+00, ]
- [ -8.24976274E-04,   8.83224586E-04,  -0.00000000E+00, ]
- [  8.23808462E-05,  -2.34983418E-05,  -0.00000000E+00, ]
force_length_stats: {min:   1.50689477E-20, max:   8.02785501E-03, mean:   2.58154064E-03, }
...

 Integrated electronic and magnetization densities in atomic spheres:
 ---------------------------------------------------------------------
 Radius=ratsph(iatom), smearing ratsm=  0.0000. Diff(up-dn)=approximate z local magnetic moment.
 Atom    Radius    up_density   dn_density  Total(up+dn)  Diff(up-dn)
    1   2.52170    10.396505     4.040693     14.437198     6.355812
    2   2.20670     3.731930     3.646995      7.378925     0.084934
    3   2.20670     3.673078     3.663306      7.336385     0.009772
    4   2.20670     3.673078     3.663306      7.336385     0.009772
    5   1.60265     1.062955     1.062632      2.125587     0.000322
    6   1.60265     1.061253     1.061621      2.122873    -0.000368
    7   1.60265     1.062955     1.062632      2.125587     0.000322
    8   1.60265     1.061253     1.061621      2.122873    -0.000368
    9   1.60265     1.060620     1.060392      2.121012     0.000228
   10   1.60265     1.060620     1.060392      2.121012     0.000228
   11   1.60265     1.060620     1.060392      2.121012     0.000228
   12   1.60265     1.060620     1.060392      2.121012     0.000228
   13   1.90363     0.481823     0.479139      0.960962     0.002684
   14   1.90363     0.481823     0.479139      0.960962     0.002684
   15   1.90363     0.481823     0.479139      0.960962     0.002684
   16   1.90363     0.481823     0.479139      0.960962     0.002684
   17   1.90363     0.480488     0.477920      0.958407     0.002568
   18   1.90363     0.477461     0.475552      0.953013     0.001909
   19   1.90363     0.480488     0.477920      0.958407     0.002568
   20   1.90363     0.477461     0.475552      0.953013     0.001909
   21   1.20000     1.232638     1.242019      2.474657    -0.009381
   22   1.20000     1.232638     1.242019      2.474657    -0.009381
   23   1.20000     1.232638     1.242019      2.474657    -0.009381
   24   1.20000     1.232638     1.242019      2.474657    -0.009381
   25   1.20000     1.235549     1.235168      2.470717     0.000381
   26   1.20000     1.239795     1.242195      2.481990    -0.002399
   27   1.20000     1.235549     1.235168      2.470717     0.000381
   28   1.20000     1.239795     1.242195      2.481990    -0.002399
   29   1.41465     2.282670     2.293304      4.575974    -0.010634
   30   1.41465     2.282670     2.293304      4.575974    -0.010634
   31   1.41465     2.282670     2.293304      4.575974    -0.010634
   32   1.41465     2.282670     2.293304      4.575974    -0.010634
   33   1.41465     2.291723     2.290893      4.582616     0.000831
   34   1.41465     2.295833     2.294975      4.590807     0.000858
   35   1.41465     2.291723     2.290893      4.582616     0.000831
   36   1.41465     2.295833     2.294975      4.590807     0.000858
 ---------------------------------------------------------------------
  Sum:             61.995711    55.595625    117.591336     6.400085
 Total magnetization (from the atomic spheres):             6.400085
 Total magnetization (exact up - dn):                       7.000073

 PAW TEST:
 ==== Compensation charge inside spheres ============
 The following values must be close to each other ...
 Compensation charge over spherical meshes =     15.472003657964533
 Compensation charge over fine fft grid    =     15.473784844593615

 ==== Results concerning PAW augmentation regions ====

 Total pseudopotential strength Dij (hartree):
 Atom #  1 - Spin component 1
  -0.67421  -0.09387   0.00000   0.00000   0.00000   0.00000   0.00000   0.00000  -0.00036   0.00000   0.00002   0.00000 ...
  -0.09387  -0.09940   0.00000   0.00000   0.00000   0.00000   0.00000   0.00000  -0.00003   0.00000   0.00012   0.00000 ...
   0.00000   0.00000  -0.74622   0.00000  -0.00063   0.21371   0.00000   0.00079   0.00000   0.00000   0.00000   0.00000 ...
   0.00000   0.00000   0.00000  -0.74513   0.00000   0.00000   0.21138   0.00000   0.00000   0.00000   0.00000   0.00000 ...
   0.00000   0.00000  -0.00063   0.00000  -0.74692   0.00079   0.00000   0.21487   0.00000   0.00000   0.00000   0.00000 ...
   0.00000   0.00000   0.21371   0.00000   0.00079   0.81850   0.00000  -0.00093   0.00000   0.00000   0.00000   0.00000 ...
   0.00000   0.00000   0.00000   0.21138   0.00000   0.00000   0.82014   0.00000   0.00000   0.00000   0.00000   0.00000 ...
   0.00000   0.00000   0.00079   0.00000   0.21487  -0.00093   0.00000   0.81743   0.00000   0.00000   0.00000   0.00000 ...
  -0.00036  -0.00003   0.00000   0.00000   0.00000   0.00000   0.00000   0.00000  -0.19317   0.00000   0.00010   0.00000 ...
   0.00000   0.00000   0.00000   0.00000   0.00000   0.00000   0.00000   0.00000   0.00000  -0.19313   0.00000  -0.00013 ...
   0.00002   0.00012   0.00000   0.00000   0.00000   0.00000   0.00000   0.00000   0.00010   0.00000  -0.19249   0.00000 ...
   0.00000   0.00000   0.00000   0.00000   0.00000   0.00000   0.00000   0.00000   0.00000  -0.00013   0.00000  -0.19320 ...
   ...  only 12  components have been written...
 Atom #  1 - Spin component 2
  -0.61028  -0.08476   0.00000   0.00000   0.00000   0.00000   0.00000   0.00000  -0.00071   0.00000  -0.00025   0.00000 ...
  -0.08476  -0.09759   0.00000   0.00000   0.00000   0.00000   0.00000   0.00000  -0.00009   0.00000   0.00004   0.00000 ...
   0.00000   0.00000  -0.68972   0.00000  -0.00110   0.15669   0.00000   0.00114   0.00000   0.00000   0.00000   0.00000 ...
   0.00000   0.00000   0.00000  -0.68857   0.00000   0.00000   0.15303   0.00000   0.00000   0.00000   0.00000   0.00000 ...
   0.00000   0.00000  -0.00110   0.00000  -0.69060   0.00114   0.00000   0.15846   0.00000   0.00000   0.00000   0.00000 ...
   0.00000   0.00000   0.15669   0.00000   0.00114   0.87900   0.00000  -0.00141   0.00000   0.00000   0.00000   0.00000 ...
   0.00000   0.00000   0.00000   0.15303   0.00000   0.00000   0.88050   0.00000   0.00000   0.00000   0.00000   0.00000 ...
   0.00000   0.00000   0.00114   0.00000   0.15846  -0.00141   0.00000   0.87768   0.00000   0.00000   0.00000   0.00000 ...
  -0.00071  -0.00009   0.00000   0.00000   0.00000   0.00000   0.00000   0.00000  -0.17987   0.00000   0.00020   0.00000 ...
   0.00000   0.00000   0.00000   0.00000   0.00000   0.00000   0.00000   0.00000   0.00000  -0.17979   0.00000  -0.00023 ...
  -0.00025   0.00004   0.00000   0.00000   0.00000   0.00000   0.00000   0.00000   0.00020   0.00000  -0.17779   0.00000 ...
   0.00000   0.00000   0.00000   0.00000   0.00000   0.00000   0.00000   0.00000   0.00000  -0.00023   0.00000  -0.17991 ...
   ...  only 12  components have been written...
 Atom # 36 - Spin component 1
   0.60770  -1.78760   0.00030   0.00000   0.00064  -0.00198   0.00000  -0.00430
  -1.78760   5.32616  -0.00081   0.00000  -0.00176   0.00551   0.00000   0.01193
   0.00030  -0.00081  -0.31737   0.00000  -0.00027   0.96023   0.00000   0.00135
   0.00000   0.00000   0.00000  -0.31700   0.00000   0.00000   0.95824   0.00000
   0.00064  -0.00176  -0.00027   0.00000  -0.31779   0.00135   0.00000   0.96226
  -0.00198   0.00551   0.96023   0.00000   0.00135  -0.33228   0.00000  -0.00647
   0.00000   0.00000   0.00000   0.95824   0.00000   0.00000  -0.32217   0.00000
  -0.00430   0.01193   0.00135   0.00000   0.96226  -0.00647   0.00000  -0.34188
 Atom # 36 - Spin component 2
   0.60769  -1.78757   0.00029   0.00000   0.00063  -0.00197   0.00000  -0.00425
  -1.78757   5.32602  -0.00081   0.00000  -0.00174   0.00548   0.00000   0.01178
   0.00029  -0.00081  -0.31737   0.00000  -0.00025   0.96023   0.00000   0.00124
   0.00000   0.00000   0.00000  -0.31699   0.00000   0.00000   0.95817   0.00000
   0.00063  -0.00174  -0.00025   0.00000  -0.31773   0.00124   0.00000   0.96198
  -0.00197   0.00548   0.96023   0.00000   0.00124  -0.33226   0.00000  -0.00592
   0.00000   0.00000   0.00000   0.95817   0.00000   0.00000  -0.32180   0.00000
  -0.00425   0.01178   0.00124   0.00000   0.96198  -0.00592   0.00000  -0.34047


 Augmentation waves occupancies Rhoij:
 Atom #  1 - Spin component 1
   1.04547  -0.10144   0.00000   0.00000   0.00000   0.00000   0.00000   0.00000   0.00365   0.00000  -0.02584   0.00000 ...
  -0.10144   0.14665   0.00000   0.00000   0.00000   0.00000   0.00000   0.00000  -0.00517   0.00000   0.04758   0.00000 ...
   0.00000   0.00000   1.00813   0.00000   0.00066  -0.00936   0.00000  -0.00076   0.00000   0.00000   0.00000   0.00000 ...
   0.00000   0.00000   0.00000   1.00665   0.00000   0.00000  -0.00816   0.00000   0.00000   0.00000   0.00000   0.00000 ...
   0.00000   0.00000   0.00066   0.00000   1.00760  -0.00075   0.00000  -0.00888   0.00000   0.00000   0.00000   0.00000 ...
   0.00000   0.00000  -0.00936   0.00000  -0.00075   0.00579   0.00000   0.00014   0.00000   0.00000   0.00000   0.00000 ...
   0.00000   0.00000   0.00000  -0.00816   0.00000   0.00000   0.00499   0.00000   0.00000   0.00000   0.00000   0.00000 ...
   0.00000   0.00000  -0.00076   0.00000  -0.00888   0.00014   0.00000   0.00472   0.00000   0.00000   0.00000   0.00000 ...
   0.00365  -0.00517   0.00000   0.00000   0.00000   0.00000   0.00000   0.00000   0.06270   0.00000  -0.03791   0.00000 ...
   0.00000   0.00000   0.00000   0.00000   0.00000   0.00000   0.00000   0.00000   0.00000   0.09860   0.00000  -0.01029 ...
  -0.02584   0.04758   0.00000   0.00000   0.00000   0.00000   0.00000   0.00000  -0.03791   0.00000   0.59179   0.00000 ...
   0.00000   0.00000   0.00000   0.00000   0.00000   0.00000   0.00000   0.00000   0.00000  -0.01029   0.00000   0.08212 ...
   ...  only 12  components have been written...
 Atom #  1 - Spin component 2
   0.99660  -0.00199   0.00000   0.00000   0.00000   0.00000   0.00000   0.00000   0.00248   0.00000  -0.01100   0.00000 ...
  -0.00199   0.10933   0.00000   0.00000   0.00000   0.00000   0.00000   0.00000  -0.00110   0.00000   0.00378   0.00000 ...
   0.00000   0.00000   0.99965   0.00000   0.00103   0.00973   0.00000  -0.00104   0.00000   0.00000   0.00000   0.00000 ...
   0.00000   0.00000   0.00000   0.99898   0.00000   0.00000   0.00927   0.00000   0.00000   0.00000   0.00000   0.00000 ...
   0.00000   0.00000   0.00103   0.00000   0.99908  -0.00103   0.00000   0.01038   0.00000   0.00000   0.00000   0.00000 ...
   0.00000   0.00000   0.00973   0.00000  -0.00103   0.00487   0.00000   0.00010   0.00000   0.00000   0.00000   0.00000 ...
   0.00000   0.00000   0.00000   0.00927   0.00000   0.00000   0.00414   0.00000   0.00000   0.00000   0.00000   0.00000 ...
   0.00000   0.00000  -0.00104   0.00000   0.01038   0.00010   0.00000   0.00401   0.00000   0.00000   0.00000   0.00000 ...
   0.00248  -0.00110   0.00000   0.00000   0.00000   0.00000   0.00000   0.00000   0.04179   0.00000   0.00037   0.00000 ...
   0.00000   0.00000   0.00000   0.00000   0.00000   0.00000   0.00000   0.00000   0.00000   0.07023   0.00000  -0.00645 ...
  -0.01100   0.00378   0.00000   0.00000   0.00000   0.00000   0.00000   0.00000   0.00037   0.00000   0.01403   0.00000 ...
   0.00000   0.00000   0.00000   0.00000   0.00000   0.00000   0.00000   0.00000   0.00000  -0.00645   0.00000   0.05840 ...
   ...  only 12  components have been written...
 Atom # 36 - Spin component 1
   1.00001   0.01415  -0.00006   0.00000  -0.00553  -0.00049   0.00000  -0.00150
   0.01415   0.00036  -0.00194   0.00000  -0.00497  -0.00014   0.00000  -0.00031
  -0.00006  -0.00194   1.08685   0.00000   0.01130   0.05324   0.00000   0.00158
   0.00000   0.00000   0.00000   1.12365   0.00000   0.00000   0.05378   0.00000
  -0.00553  -0.00497   0.01130   0.00000   1.11609   0.00153   0.00000   0.05620
  -0.00049  -0.00014   0.05324   0.00000   0.00153   0.00263   0.00000   0.00013
   0.00000   0.00000   0.00000   0.05378   0.00000   0.00000   0.00260   0.00000
  -0.00150  -0.00031   0.00158   0.00000   0.05620   0.00013   0.00000   0.00287
 Atom # 36 - Spin component 2
   0.99989   0.01419   0.00013   0.00000  -0.00482  -0.00049   0.00000  -0.00149
   0.01419   0.00035  -0.00198   0.00000  -0.00514  -0.00014   0.00000  -0.00031
   0.00013  -0.00198   1.08804   0.00000   0.00984   0.05328   0.00000   0.00153
   0.00000   0.00000   0.00000   1.12388   0.00000   0.00000   0.05379   0.00000
  -0.00482  -0.00514   0.00984   0.00000   1.11391   0.00150   0.00000   0.05618
  -0.00049  -0.00014   0.05328   0.00000   0.00150   0.00263   0.00000   0.00013
   0.00000   0.00000   0.00000   0.05379   0.00000   0.00000   0.00260   0.00000
  -0.00149  -0.00031   0.00153   0.00000   0.05618   0.00013   0.00000   0.00287

 "PAW+U" part of augmentation waves occupancies Rhoij:
 Atom #  1 - L=3 ONLY - Spin component 1
   0.99411   0.00000   0.00509   0.00000   0.00489   0.00000   0.00070  -0.00020   0.00000   0.00162   0.00000   0.00184   0.00000   0.00012
   0.00000   0.13390   0.00000   0.04451   0.00000  -0.14345   0.00000   0.00000   0.01839   0.00000   0.00051   0.00000   0.01558   0.00000
   0.00509   0.00000   0.99201   0.00000  -0.00272   0.00000  -0.00028   0.00152   0.00000  -0.00059   0.00000  -0.00063   0.00000   0.00007
   0.00000   0.04451   0.00000   0.99640   0.00000   0.01047   0.00000   0.00000  -0.00050   0.00000   0.00164   0.00000   0.00099   0.00000
   0.00489   0.00000  -0.00272   0.00000   0.98843   0.00000  -0.00188   0.00187   0.00000  -0.00065   0.00000  -0.00199   0.00000  -0.00052
   0.00000  -0.14345   0.00000   0.01047   0.00000   0.95960   0.00000   0.00000   0.00570   0.00000   0.00164   0.00000   0.00118   0.00000
   0.00070   0.00000  -0.00028   0.00000  -0.00188   0.00000   0.99611   0.00012   0.00000   0.00020   0.00000  -0.00057   0.00000   0.00051
  -0.00020   0.00000   0.00152   0.00000   0.00187   0.00000   0.00012   0.00258   0.00000  -0.00005   0.00000   0.00042   0.00000  -0.00016
   0.00000   0.01839   0.00000  -0.00050   0.00000   0.00570   0.00000   0.00000   0.00376   0.00000  -0.00013   0.00000   0.00217   0.00000
   0.00162   0.00000  -0.00059   0.00000  -0.00065   0.00000   0.00020  -0.00005   0.00000   0.00272   0.00000   0.00028   0.00000   0.00031
   0.00000   0.00051   0.00000   0.00164   0.00000   0.00164   0.00000   0.00000  -0.00013   0.00000   0.00327   0.00000   0.00079   0.00000
   0.00184   0.00000  -0.00063   0.00000  -0.00199   0.00000  -0.00057   0.00042   0.00000   0.00028   0.00000   0.00251   0.00000   0.00002
   0.00000   0.01558   0.00000   0.00099   0.00000   0.00118   0.00000   0.00000   0.00217   0.00000   0.00079   0.00000   0.00519   0.00000
   0.00012   0.00000   0.00007   0.00000  -0.00052   0.00000   0.00051  -0.00016   0.00000   0.00031   0.00000   0.00002   0.00000   0.00258
 Atom #  1 - L=3 ONLY - Spin component 2
   0.01436   0.00000  -0.00048   0.00000   0.00311   0.00000  -0.00092   0.00534   0.00000  -0.00012   0.00000   0.00106   0.00000  -0.00037
   0.00000   0.03672   0.00000  -0.00129   0.00000   0.02119   0.00000   0.00000   0.01215   0.00000  -0.00035   0.00000   0.00713   0.00000
  -0.00048   0.00000   0.01465   0.00000   0.00128   0.00000   0.00305  -0.00011   0.00000   0.00541   0.00000   0.00047   0.00000   0.00089
   0.00000  -0.00129   0.00000   0.01760   0.00000   0.00380   0.00000   0.00000  -0.00053   0.00000   0.00668   0.00000   0.00138   0.00000
   0.00311   0.00000   0.00128   0.00000   0.01323   0.00000  -0.00031   0.00107   0.00000   0.00050   0.00000   0.00493   0.00000  -0.00008
   0.00000   0.02119   0.00000   0.00380   0.00000   0.03184   0.00000   0.00000   0.00665   0.00000   0.00158   0.00000   0.01141   0.00000
  -0.00092   0.00000   0.00305   0.00000  -0.00031   0.00000   0.01413  -0.00032   0.00000   0.00091   0.00000  -0.00008   0.00000   0.00527
   0.00534   0.00000  -0.00011   0.00000   0.00107   0.00000  -0.00032   0.00200   0.00000  -0.00002   0.00000   0.00037   0.00000  -0.00013
   0.00000   0.01215   0.00000  -0.00053   0.00000   0.00665   0.00000   0.00000   0.00406   0.00000  -0.00016   0.00000   0.00225   0.00000
  -0.00012   0.00000   0.00541   0.00000   0.00050   0.00000   0.00091  -0.00002   0.00000   0.00202   0.00000   0.00019   0.00000   0.00026
   0.00000  -0.00035   0.00000   0.00668   0.00000   0.00158   0.00000   0.00000  -0.00016   0.00000   0.00257   0.00000   0.00058   0.00000
   0.00106   0.00000   0.00047   0.00000   0.00493   0.00000  -0.00008   0.00037   0.00000   0.00019   0.00000   0.00184   0.00000  -0.00002
   0.00000   0.00713   0.00000   0.00138   0.00000   0.01141   0.00000   0.00000   0.00225   0.00000   0.00058   0.00000   0.00412   0.00000
  -0.00037   0.00000   0.00089   0.00000  -0.00008   0.00000   0.00527  -0.00013   0.00000   0.00026   0.00000  -0.00002   0.00000   0.00198

 ---------- DFT+U DATA --------------------------------------------------- 

 ====== For Atom     1, occupations for correlated orbitals. lpawu =   3

 Atom   1. Occ. for lpawu and for spin  1 =   5.99568
 Atom   1. Occ. for lpawu and for spin  2 =   0.03139
 => On atom   1,  local Mag. for lpawu is       -5.964290

 == Occupation matrix for correlated orbitals:

 Occupation matrix for spin  1
     0.99076    0.00000   -0.00045    0.00000    0.00003    0.00000   -0.00028
     0.00000    0.08294    0.00000    0.04346    0.00000   -0.17008    0.00000
    -0.00045    0.00000    0.99051    0.00000    0.00044    0.00000    0.00031
     0.00000    0.04346    0.00000    0.98917    0.00000    0.00859    0.00000
     0.00003    0.00000    0.00044    0.00000    0.99099    0.00000    0.00005
     0.00000   -0.17008    0.00000    0.00859    0.00000    0.96096    0.00000
    -0.00028    0.00000    0.00031    0.00000    0.00005    0.00000    0.99036


 Occupation matrix for spin  2
     0.00297    0.00000   -0.00016    0.00000    0.00073    0.00000   -0.00019
     0.00000    0.00911    0.00000   -0.00033    0.00000    0.00535    0.00000
    -0.00016    0.00000    0.00307    0.00000    0.00026    0.00000    0.00084
     0.00000   -0.00033    0.00000    0.00359    0.00000    0.00071    0.00000
     0.00073    0.00000    0.00026    0.00000    0.00273    0.00000   -0.00008
     0.00000    0.00535    0.00000    0.00071    0.00000    0.00700    0.00000
    -0.00019    0.00000    0.00084    0.00000   -0.00008    0.00000    0.00292




---OUTPUT-----------------------------------------------------------------------

 Cartesian coordinates (xcart) [bohr]
  7.52016511300000E+00  0.00000000000000E+00  3.00844399050000E+00
  7.52016511300000E+00  0.00000000000000E+00  9.02533197150000E+00
 -8.34906045743544E-16  7.52016511300000E+00  1.43088793764090E-03
 -8.34906045743544E-16  7.52016511300000E+00  6.01545709306236E+00
  1.91679604162283E+00  1.24137190228194E+01  3.00844399050000E+00
  1.91081960547599E+00  1.24086157064188E+01  9.02533197150000E+00
  1.31235341843772E+01  2.62661120318057E+00  3.00844399050000E+00
  1.31295106205240E+01  2.63171451958115E+00  9.02533197150000E+00
  2.63193293074460E+00  1.91447869522309E+00  3.45845572075702E-03
  2.63193293074460E+00  1.91447869522309E+00  6.01342952527924E+00
  1.24083972952554E+01  1.31258515307769E+01  3.45845572075702E-03
  1.24083972952554E+01  1.31258515307769E+01  6.01342952527924E+00
  5.29025667622281E+00  1.02638214955645E+01  2.56189003622248E-03
  5.29025667622281E+00  1.02638214955645E+01  6.01432609096378E+00
  9.75007354977718E+00  4.77650873043551E+00  2.56189003622248E-03
  9.75007354977718E+00  4.77650873043551E+00  6.01432609096378E+00
  4.77990368115116E+00  5.28052173525012E+00  3.00844399050000E+00
  4.77943432884605E+00  5.28731033569286E+00  9.02533197150000E+00
  1.02604265448488E+01  9.75980849074988E+00  3.00844399050000E+00
  1.02608958971540E+01  9.75301989030714E+00  9.02533197150000E+00
  8.78813662424146E+00  1.09931294778273E+01 -8.63852057212183E-04
  8.78813662424146E+00  1.09931294778273E+01  6.01775183305721E+00
  6.25219360175854E+00  4.04720074817274E+00 -8.63852057212183E-04
  6.25219360175854E+00  4.04720074817274E+00  6.01775183305721E+00
  4.06385400416420E+00  8.78508979174510E+00  3.00844399050000E+00
  4.06709877793456E+00  8.78913122473494E+00  9.02533197150000E+00
  1.09764762218358E+01  6.25524043425490E+00  3.00844399050000E+00
  1.09732314480654E+01  6.25119900126506E+00  9.02533197150000E+00
  3.79782175761518E+00  1.33407136184722E+01 -9.94702221163062E-04
  3.79782175761518E+00  1.33407136184722E+01  6.01788268322116E+00
  1.12425084683848E+01  1.69961660752782E+00 -9.94702221163062E-04
  1.12425084683848E+01  1.69961660752782E+00  6.01788268322116E+00
  1.69652142638592E+00  3.80656188602573E+00  3.00844399050000E+00
  1.69551471541853E+00  3.81259410826141E+00  9.02533197150000E+00
  1.33438087996141E+01  1.12337683399743E+01  3.00844399050000E+00
  1.33448155105815E+01  1.12277361177386E+01  9.02533197150000E+00
 Reduced coordinates (xred)
  5.00000000000000E-01  0.00000000000000E+00  2.50000000000000E-01
  5.00000000000000E-01  0.00000000000000E+00  7.50000000000000E-01
 -5.55111512312578E-17  5.00000000000000E-01  1.18905981145015E-04
 -5.55111512312578E-17  5.00000000000000E-01  4.99881094018855E-01
  1.27443747100000E-01  8.25362132100000E-01  2.50000000000000E-01
  1.27046386400000E-01  8.25022823300000E-01  7.50000000000000E-01
  8.72556252900000E-01  1.74637867900000E-01  2.50000000000000E-01
  8.72953613600000E-01  1.74977176700000E-01  7.50000000000000E-01
  1.74991698400000E-01  1.27289671600000E-01  2.87395721150041E-04
  1.74991698400000E-01  1.27289671600000E-01  4.99712604278850E-01
  8.25008301600000E-01  8.72710328400000E-01  2.87395721150041E-04
  8.25008301600000E-01  8.72710328400000E-01  4.99712604278850E-01
  3.51738066700000E-01  6.82419956300000E-01  2.12891618084993E-04
  3.51738066700000E-01  6.82419956300000E-01  4.99787108381915E-01
  6.48261933300000E-01  3.17580043700000E-01  2.12891618084993E-04
  6.48261933300000E-01  3.17580043700000E-01  4.99787108381915E-01
  3.17805766850000E-01  3.51090810900000E-01  2.50000000000000E-01
  3.17774560600000E-01  3.51542170700000E-01  7.50000000000000E-01
  6.82194233150000E-01  6.48909189100000E-01  2.50000000000000E-01
  6.82225439400000E-01  6.48457829300000E-01  7.50000000000000E-01
  5.84304765400000E-01  7.30910113850000E-01 -7.17856190725203E-05
  5.84304765400000E-01  7.30910113850000E-01  5.00071785619072E-01
  4.15695234600000E-01  2.69089886150000E-01 -7.17856190725203E-05
  4.15695234600000E-01  2.69089886150000E-01  5.00071785619072E-01
  2.70197126200000E-01  5.84102187900000E-01  2.50000000000000E-01
  2.70412864400000E-01  5.84370894300000E-01  7.50000000000000E-01
  7.29802873800000E-01  4.15897812100000E-01  2.50000000000000E-01
  7.29587135600000E-01  4.15629105700000E-01  7.50000000000000E-01
  2.52509200300000E-01  8.86996057800000E-01 -8.26591939474452E-05
  2.52509200300000E-01  8.86996057800000E-01  5.00082659193947E-01
  7.47490799700000E-01  1.13003942200000E-01 -8.26591939474452E-05
  7.47490799700000E-01  1.13003942200000E-01  5.00082659193947E-01
  1.12798150100000E-01  2.53090313100000E-01  2.50000000000000E-01
  1.12731216000000E-01  2.53491382900000E-01  7.50000000000000E-01
  8.87201849900000E-01  7.46909686900000E-01  2.50000000000000E-01
  8.87268784000000E-01  7.46508617100000E-01  7.50000000000000E-01
 Cartesian forces (fcart) [Ha/bohr]; max,rms= 6.58625E-03 2.18670E-03 (free atoms)
 -1.35525271560688E-20 -6.58803403420011E-21 -0.00000000000000E+00
 -1.35525271560688E-20 -6.58803403420011E-21 -0.00000000000000E+00
 -1.35525271560688E-20 -6.58803406105436E-21  5.64519420038809E-04
 -1.35525271560688E-20 -6.58803400734586E-21 -5.64519420038809E-04
 -5.79942193618055E-04 -7.96147858699667E-04 -0.00000000000000E+00
 -3.15101364409688E-05  5.64214924948072E-05 -3.35635950634759E-29
  5.79942193618055E-04  7.96147858699667E-04 -0.00000000000000E+00
  3.15101364409687E-05 -5.64214924948072E-05  3.35635950634759E-29
  4.79111054049822E-06  9.95943533410102E-05 -8.04948902916813E-04
  4.79111054049822E-06  9.95943533410101E-05  8.04948902916813E-04
 -4.79111054049825E-06 -9.95943533410102E-05 -8.04948902916813E-04
 -4.79111054049825E-06 -9.95943533410102E-05  8.04948902916813E-04
  7.73682348314439E-04  6.74389839324414E-04  5.18366076008948E-04
  7.73682348314439E-04  6.74389839324414E-04 -5.18366076008948E-04
 -7.73682348314439E-04 -6.74389839324414E-04  5.18366076008948E-04
 -7.73682348314439E-04 -6.74389839324414E-04 -5.18366076008948E-04
 -6.13076016083651E-04  2.49272695975437E-03 -0.00000000000000E+00
 -1.23845356485805E-03 -2.43380727722527E-03 -0.00000000000000E+00
  6.13076016083651E-04 -2.49272695975437E-03 -0.00000000000000E+00
  1.23845356485805E-03  2.43380727722527E-03 -0.00000000000000E+00
 -1.95043867889574E-03  5.36355601304752E-03  5.64575166742383E-03
 -1.95043867889574E-03  5.36355601304752E-03 -5.64575166742383E-03
  1.95043867889574E-03 -5.36355601304752E-03  5.64575166742383E-03
  1.95043867889574E-03 -5.36355601304752E-03 -5.64575166742383E-03
 -1.91167050242509E-03 -1.38560969030484E-03 -0.00000000000000E+00
  3.44920442679416E-05 -1.79915431308663E-03 -5.37017521015614E-28
  1.91167050242509E-03  1.38560969030484E-03 -0.00000000000000E+00
 -3.44920442679417E-05  1.79915431308663E-03  5.37017521015614E-28
  2.48518591016875E-03  5.59945557636388E-04  6.58624877443323E-03
  2.48518591016875E-03  5.59945557636388E-04 -6.58624877443323E-03
 -2.48518591016875E-03 -5.59945557636388E-04  6.58624877443323E-03
 -2.48518591016875E-03 -5.59945557636388E-04 -6.58624877443323E-03
  8.24976273556374E-04 -8.83224586129308E-04 -0.00000000000000E+00
 -8.23808461979544E-05  2.34983418191001E-05 -0.00000000000000E+00
 -8.24976273556374E-04  8.83224586129308E-04 -0.00000000000000E+00
  8.23808461979544E-05 -2.34983418191001E-05 -0.00000000000000E+00
 Gradient of E wrt nuclear positions in reduced coordinates (gred)
  2.03834483824107E-19  9.90862074144967E-20  0.00000000000000E+00
  2.03834483824107E-19  9.90862074144967E-20  0.00000000000000E+00
  2.03834483824107E-19  9.90862078183935E-20 -6.79330022694519E-03
  2.03834483824107E-19  9.90862070105999E-20  6.79330022694519E-03
  8.72252210400638E-03  1.19743267035658E-02  0.00000000000000E+00
  4.73922857538487E-04 -8.48597878965680E-04  4.03896783473158E-28
 -8.72252210400638E-03 -1.19743267035658E-02 -0.00000000000000E+00
 -4.73922857538486E-04  8.48597878965681E-04 -4.03896783473158E-28
 -7.20598846783626E-05 -1.49793196289372E-03  9.68657475855862E-03
 -7.20598846783626E-05 -1.49793196289372E-03 -9.68657475855862E-03
  7.20598846783630E-05  1.49793196289372E-03  9.68657475855862E-03
  7.20598846783630E-05  1.49793196289372E-03 -9.68657475855862E-03
 -1.16364380086763E-02 -1.01430458844983E-02 -6.23790122499275E-03
 -1.16364380086763E-02 -1.01430458844983E-02  6.23790122499275E-03
  1.16364380086763E-02  1.01430458844983E-02 -6.23790122499275E-03
  1.16364380086763E-02  1.01430458844983E-02  6.23790122499275E-03
  9.22086573553860E-03 -3.74914366379588E-02 -0.00000000000000E+00
  1.86267505850320E-02  3.66052651559100E-02  0.00000000000000E+00
 -9.22086573553860E-03  3.74914366379588E-02 -0.00000000000000E+00
 -1.86267505850320E-02 -3.66052651559100E-02 -0.00000000000000E+00
  2.93352418161552E-02 -8.06696536218826E-02 -6.79397107028663E-02
  2.93352418161552E-02 -8.06696536218826E-02  6.79397107028663E-02
 -2.93352418161552E-02  8.06696536218826E-02 -6.79397107028663E-02
 -2.93352418161552E-02  8.06696536218826E-02  6.79397107028663E-02
  2.87521556397766E-02  2.08400273065304E-02  0.00000000000000E+00
 -5.18771735959653E-04  2.70598749963551E-02  6.46234853557053E-27
 -2.87521556397766E-02 -2.08400273065304E-02 -0.00000000000000E+00
  5.18771735959653E-04 -2.70598749963551E-02 -6.46234853557053E-27
 -3.73780167619404E-02 -8.42176609543299E-03 -7.92574421815266E-02
 -3.73780167619404E-02 -8.42176609543299E-03  7.92574421815266E-02
  3.73780167619404E-02  8.42176609543299E-03 -7.92574421815266E-02
  3.73780167619404E-02  8.42176609543299E-03  7.92574421815266E-02
 -1.24079155829028E-02  1.32839894391070E-02 -0.00000000000000E+00
  1.23903513111455E-03 -3.53422820722691E-04 -0.00000000000000E+00
  1.24079155829028E-02 -1.32839894391070E-02 -0.00000000000000E+00
 -1.23903513111455E-03  3.53422820722691E-04 -0.00000000000000E+00
 Total energy (etotal) [Ha]= -4.75159226045956E+02

--- Iteration: (   2/1000) Internal Cycle: (1/1)
--------------------------------------------------------------------------------

---SELF-CONSISTENT-FIELD CONVERGENCE--------------------------------------------

--- !BeginCycle
iteration_state: {dtset: 1, itime: 2, icycle: 1, }
solver: {iscf: 17, nstep: 100, nline: 4, wfoptalg: 114, }
tolerances: {toldff: 1.00E-04, }
...

     iter   Etot(hartree)      deltaE(h)  residm     nres2    diffor    maxfor
 ETOT  1  -475.15979487689    -4.752E+02 4.609E-06 6.254E-03 7.431E-04 5.921E-03
 ETOT  2  -475.15985306685    -5.819E-05 4.079E-06 7.482E-04 6.203E-04 5.847E-03
 ETOT  3  -475.15990659790    -5.353E-05 7.464E-06 4.571E-04 1.611E-04 5.981E-03
 ETOT  4  -475.15993809657    -3.150E-05 3.354E-06 7.179E-05 8.890E-05 5.894E-03
 ETOT  5  -475.15997017788    -3.208E-05 5.910E-06 5.360E-05 2.703E-05 5.884E-03

 At SCF step    5, forces are converged : 
  for the second time, max diff in force=  2.703E-05 < toldff=  1.000E-04

 Cartesian components of stress tensor (hartree/bohr^3)
  sigma(1 1)=  4.09849706E-04  sigma(3 2)=  0.00000000E+00
  sigma(2 2)=  4.32988902E-04  sigma(3 1)=  0.00000000E+00
  sigma(3 3)=  4.16154021E-05  sigma(2 1)= -4.87100255E-06


--- !ResultsGS
iteration_state: {dtset: 1, itime: 2, icycle: 1, }
comment   : Summary of ground state results
lattice_vectors:
- [ 15.0403302,   0.0000000,   0.0000000, ]
- [  0.0000000,  15.0403302,   0.0000000, ]
- [  0.0000000,   0.0000000,  12.0337760, ]
lattice_lengths: [  15.04033,   15.04033,   12.03378, ]
lattice_angles: [ 90.000,  90.000,  90.000, ] # degrees, (23, 13, 12)
lattice_volume:   2.7221789E+03
convergence: {deltae: -3.208E-05, res2:  5.360E-05, residm:  5.910E-06, diffor:  2.703E-05, }
etotal    :  -4.75159970E+02
entropy   :   0.00000000E+00
fermie    :   2.63124322E-01
cartesian_stress_tensor: # hartree/bohr^3
- [  4.09849706E-04,  -4.87100255E-06,   0.00000000E+00, ]
- [ -4.87100255E-06,   4.32988902E-04,   0.00000000E+00, ]
- [  0.00000000E+00,   0.00000000E+00,   4.16154021E-05, ]
pressure_GPa:  -8.6738E+00
xred      :
- [  5.0000E-01,  -3.7811E-22,   2.5000E-01, Eu]
- [  5.0000E-01,  -3.7811E-22,   7.5000E-01, Sr]
- [ -5.5511E-17,   5.0000E-01,   1.6582E-04, Sr]
- [ -5.5511E-17,   5.0000E-01,   4.9983E-01, Sr]
- [  1.2741E-01,   8.2531E-01,   2.5000E-01, Li]
- [  1.2704E-01,   8.2503E-01,   7.5000E-01, Li]
- [  8.7259E-01,   1.7469E-01,   2.5000E-01, Li]
- [  8.7296E-01,   1.7497E-01,   7.5000E-01, Li]
- [  1.7499E-01,   1.2730E-01,   2.2050E-04, Li]
- [  1.7499E-01,   1.2730E-01,   4.9978E-01, Li]
- [  8.2501E-01,   8.7270E-01,   2.2050E-04, Li]
- [  8.2501E-01,   8.7270E-01,   4.9978E-01, Li]
- [  3.5179E-01,   6.8246E-01,   2.5597E-04, Al]
- [  3.5179E-01,   6.8246E-01,   4.9974E-01, Al]
- [  6.4821E-01,   3.1754E-01,   2.5597E-04, Al]
- [  6.4821E-01,   3.1754E-01,   4.9974E-01, Al]
- [  3.1777E-01,   3.5126E-01,   2.5000E-01, Al]
- [  3.1769E-01,   3.5138E-01,   7.5000E-01, Al]
- [  6.8223E-01,   6.4874E-01,   2.5000E-01, Al]
- [  6.8231E-01,   6.4862E-01,   7.5000E-01, Al]
- [  5.8418E-01,   7.3127E-01,   3.9737E-04,  N]
- [  5.8418E-01,   7.3127E-01,   4.9960E-01,  N]
- [  4.1582E-01,   2.6873E-01,   3.9737E-04,  N]
- [  4.1582E-01,   2.6873E-01,   4.9960E-01,  N]
- [  2.7007E-01,   5.8401E-01,   2.5000E-01,  N]
- [  2.7042E-01,   5.8425E-01,   7.5000E-01,  N]
- [  7.2993E-01,   4.1599E-01,   2.5000E-01,  N]
- [  7.2958E-01,   4.1575E-01,   7.5000E-01,  N]
- [  2.5267E-01,   8.8703E-01,   4.6465E-04,  O]
- [  2.5267E-01,   8.8703E-01,   4.9954E-01,  O]
- [  7.4733E-01,   1.1297E-01,   4.6465E-04,  O]
- [  7.4733E-01,   1.1297E-01,   4.9954E-01,  O]
- [  1.1285E-01,   2.5303E-01,   2.5000E-01,  O]
- [  1.1273E-01,   2.5349E-01,   7.5000E-01,  O]
- [  8.8715E-01,   7.4697E-01,   2.5000E-01,  O]
- [  8.8727E-01,   7.4651E-01,   7.5000E-01,  O]
cartesian_forces: # hartree/bohr
- [ -0.00000000E+00,   5.27042723E-21,  -0.00000000E+00, ]
- [ -0.00000000E+00,   5.27042723E-21,  -0.00000000E+00, ]
- [ -0.00000000E+00,   5.27042723E-21,   5.96385253E-04, ]
- [ -0.00000000E+00,   5.27042723E-21,  -5.96385253E-04, ]
- [ -5.89763582E-04,  -7.66202908E-04,  -0.00000000E+00, ]
- [  6.87013927E-05,   8.36250056E-05,  -0.00000000E+00, ]
- [  5.89763582E-04,   7.66202908E-04,  -0.00000000E+00, ]
- [ -6.87013927E-05,  -8.36250056E-05,  -0.00000000E+00, ]
- [  6.31148755E-05,   5.11808800E-05,  -5.76990307E-04, ]
- [  6.31148755E-05,   5.11808800E-05,   5.76990307E-04, ]
- [ -6.31148755E-05,  -5.11808800E-05,  -5.76990307E-04, ]
- [ -6.31148755E-05,  -5.11808800E-05,   5.76990307E-04, ]
- [  5.55143353E-04,   5.63487435E-04,   7.16034278E-04, ]
- [  5.55143353E-04,   5.63487435E-04,  -7.16034278E-04, ]
- [ -5.55143353E-04,  -5.63487435E-04,   7.16034278E-04, ]
- [ -5.55143353E-04,  -5.63487435E-04,  -7.16034278E-04, ]
- [ -6.41025474E-04,   1.83269512E-03,  -0.00000000E+00, ]
- [ -4.72710610E-04,  -2.54901090E-03,  -0.00000000E+00, ]
- [  6.41025474E-04,  -1.83269512E-03,  -0.00000000E+00, ]
- [  4.72710610E-04,   2.54901090E-03,  -0.00000000E+00, ]
- [ -1.56059057E-03,   4.96272284E-03,   4.46318412E-03, ]
- [ -1.56059057E-03,   4.96272284E-03,  -4.46318412E-03, ]
- [  1.56059057E-03,  -4.96272284E-03,   4.46318412E-03, ]
- [  1.56059057E-03,  -4.96272284E-03,  -4.46318412E-03, ]
- [ -1.78320923E-03,  -1.10908850E-03,   6.87382427E-26, ]
- [  2.02068125E-04,  -1.56343599E-03,   6.87382427E-26, ]
- [  1.78320923E-03,   1.10908850E-03,  -6.87382427E-26, ]
- [ -2.02068125E-04,   1.56343599E-03,  -6.87382427E-26, ]
- [  2.23693517E-03,   5.06644342E-04,   5.88390906E-03, ]
- [  2.23693517E-03,   5.06644342E-04,  -5.88390906E-03, ]
- [ -2.23693517E-03,  -5.06644342E-04,   5.88390906E-03, ]
- [ -2.23693517E-03,  -5.06644342E-04,  -5.88390906E-03, ]
- [  6.50267430E-04,  -7.44948052E-04,  -2.14807008E-27, ]
- [ -1.90610038E-04,  -2.10307465E-04,   2.14807008E-27, ]
- [ -6.50267430E-04,   7.44948052E-04,   2.14807008E-27, ]
- [  1.90610038E-04,   2.10307465E-04,  -2.14807008E-27, ]
force_length_stats: {min:   5.27042723E-21, max:   6.85449294E-03, mean:   2.26628818E-03, }
...

 Integrated electronic and magnetization densities in atomic spheres:
 ---------------------------------------------------------------------
 Radius=ratsph(iatom), smearing ratsm=  0.0000. Diff(up-dn)=approximate z local magnetic moment.
 Atom    Radius    up_density   dn_density  Total(up+dn)  Diff(up-dn)
    1   2.52170    10.396509     4.041688     14.438197     6.354820
    2   2.20670     3.732268     3.646985      7.379253     0.085283
    3   2.20670     3.673357     3.663241      7.336598     0.010116
    4   2.20670     3.673357     3.663241      7.336598     0.010116
    5   1.60265     1.063077     1.062755      2.125832     0.000322
    6   1.60265     1.060864     1.061206      2.122070    -0.000342
    7   1.60265     1.063077     1.062755      2.125832     0.000322
    8   1.60265     1.060864     1.061206      2.122070    -0.000342
    9   1.60265     1.060655     1.060432      2.121087     0.000223
   10   1.60265     1.060655     1.060432      2.121087     0.000223
   11   1.60265     1.060655     1.060432      2.121087     0.000223
   12   1.60265     1.060655     1.060432      2.121087     0.000223
   13   1.90363     0.481854     0.479144      0.960998     0.002710
   14   1.90363     0.481854     0.479144      0.960998     0.002710
   15   1.90363     0.481854     0.479144      0.960998     0.002710
   16   1.90363     0.481854     0.479144      0.960998     0.002710
   17   1.90363     0.480355     0.477820      0.958174     0.002535
   18   1.90363     0.476686     0.474653      0.951339     0.002033
   19   1.90363     0.480355     0.477820      0.958174     0.002535
   20   1.90363     0.476686     0.474653      0.951339     0.002033
   21   1.20000     1.233555     1.243123      2.476678    -0.009567
   22   1.20000     1.233555     1.243123      2.476678    -0.009567
   23   1.20000     1.233555     1.243123      2.476678    -0.009567
   24   1.20000     1.233555     1.243123      2.476678    -0.009567
   25   1.20000     1.238249     1.237993      2.476242     0.000256
   26   1.20000     1.236542     1.239053      2.475595    -0.002512
   27   1.20000     1.238249     1.237993      2.476242     0.000256
   28   1.20000     1.236542     1.239053      2.475595    -0.002512
   29   1.41465     2.284401     2.294963      4.579364    -0.010562
   30   1.41465     2.284401     2.294963      4.579364    -0.010562
   31   1.41465     2.284401     2.294963      4.579364    -0.010562
   32   1.41465     2.284401     2.294963      4.579364    -0.010562
   33   1.41465     2.291461     2.290756      4.582217     0.000706
   34   1.41465     2.295753     2.295025      4.590778     0.000728
   35   1.41465     2.291461     2.290756      4.582217     0.000706
   36   1.41465     2.295753     2.295025      4.590778     0.000728
 ---------------------------------------------------------------------
  Sum:             62.003325    55.604324    117.607649     6.399001
 Total magnetization (from the atomic spheres):             6.399001
 Total magnetization (exact up - dn):                       7.000073

 PAW TEST:
 ==== Compensation charge inside spheres ============
 The following values must be close to each other ...
 Compensation charge over spherical meshes =     15.473763634433036
 Compensation charge over fine fft grid    =     15.474154819355830

 ==== Results concerning PAW augmentation regions ====

 Total pseudopotential strength Dij (hartree):
 Atom #  1 - Spin component 1
  -0.67522  -0.09377   0.00000   0.00000   0.00000   0.00000   0.00000   0.00000  -0.00017   0.00000   0.00002   0.00000 ...
  -0.09377  -0.09941   0.00000   0.00000   0.00000   0.00000   0.00000   0.00000  -0.00001   0.00000   0.00012   0.00000 ...
   0.00000   0.00000  -0.74615   0.00000  -0.00024   0.21334   0.00000   0.00025   0.00000   0.00000   0.00000   0.00000 ...
   0.00000   0.00000   0.00000  -0.74500   0.00000   0.00000   0.21093   0.00000   0.00000   0.00000   0.00000   0.00000 ...
   0.00000   0.00000  -0.00024   0.00000  -0.74670   0.00025   0.00000   0.21429   0.00000   0.00000   0.00000   0.00000 ...
   0.00000   0.00000   0.21334   0.00000   0.00025   0.81883   0.00000  -0.00036   0.00000   0.00000   0.00000   0.00000 ...
   0.00000   0.00000   0.00000   0.21093   0.00000   0.00000   0.82056   0.00000   0.00000   0.00000   0.00000   0.00000 ...
   0.00000   0.00000   0.00025   0.00000   0.21429  -0.00036   0.00000   0.81798   0.00000   0.00000   0.00000   0.00000 ...
  -0.00017  -0.00001   0.00000   0.00000   0.00000   0.00000   0.00000   0.00000  -0.19314   0.00000   0.00003   0.00000 ...
   0.00000   0.00000   0.00000   0.00000   0.00000   0.00000   0.00000   0.00000   0.00000  -0.19311   0.00000  -0.00007 ...
   0.00002   0.00012   0.00000   0.00000   0.00000   0.00000   0.00000   0.00000   0.00003   0.00000  -0.19247   0.00000 ...
   0.00000   0.00000   0.00000   0.00000   0.00000   0.00000   0.00000   0.00000   0.00000  -0.00007   0.00000  -0.19316 ...
   ...  only 12  components have been written...
 Atom #  1 - Spin component 2
  -0.61123  -0.08466   0.00000   0.00000   0.00000   0.00000   0.00000   0.00000  -0.00035   0.00000  -0.00025   0.00000 ...
  -0.08466  -0.09761   0.00000   0.00000   0.00000   0.00000   0.00000   0.00000  -0.00004   0.00000   0.00004   0.00000 ...
   0.00000   0.00000  -0.68967   0.00000  -0.00045   0.15637   0.00000   0.00034   0.00000   0.00000   0.00000   0.00000 ...
   0.00000   0.00000   0.00000  -0.68843   0.00000   0.00000   0.15259   0.00000   0.00000   0.00000   0.00000   0.00000 ...
   0.00000   0.00000  -0.00045   0.00000  -0.69031   0.00034   0.00000   0.15782   0.00000   0.00000   0.00000   0.00000 ...
   0.00000   0.00000   0.15637   0.00000   0.00034   0.87930   0.00000  -0.00056   0.00000   0.00000   0.00000   0.00000 ...
   0.00000   0.00000   0.00000   0.15259   0.00000   0.00000   0.88093   0.00000   0.00000   0.00000   0.00000   0.00000 ...
   0.00000   0.00000   0.00034   0.00000   0.15782  -0.00056   0.00000   0.87831   0.00000   0.00000   0.00000   0.00000 ...
  -0.00035  -0.00004   0.00000   0.00000   0.00000   0.00000   0.00000   0.00000  -0.17980   0.00000   0.00009   0.00000 ...
   0.00000   0.00000   0.00000   0.00000   0.00000   0.00000   0.00000   0.00000   0.00000  -0.17977   0.00000  -0.00010 ...
  -0.00025   0.00004   0.00000   0.00000   0.00000   0.00000   0.00000   0.00000   0.00009   0.00000  -0.17776   0.00000 ...
   0.00000   0.00000   0.00000   0.00000   0.00000   0.00000   0.00000   0.00000   0.00000  -0.00010   0.00000  -0.17984 ...
   ...  only 12  components have been written...
 Atom # 36 - Spin component 1
   0.60773  -1.78771   0.00029   0.00000   0.00064  -0.00197   0.00000  -0.00433
  -1.78771   5.32653  -0.00081   0.00000  -0.00177   0.00549   0.00000   0.01200
   0.00029  -0.00081  -0.31743   0.00000  -0.00027   0.96052   0.00000   0.00136
   0.00000   0.00000   0.00000  -0.31706   0.00000   0.00000   0.95853   0.00000
   0.00064  -0.00177  -0.00027   0.00000  -0.31785   0.00136   0.00000   0.96257
  -0.00197   0.00549   0.96052   0.00000   0.00136  -0.33373   0.00000  -0.00649
   0.00000   0.00000   0.00000   0.95853   0.00000   0.00000  -0.32362   0.00000
  -0.00433   0.01200   0.00136   0.00000   0.96257  -0.00649   0.00000  -0.34343
 Atom # 36 - Spin component 2
   0.60772  -1.78768   0.00029   0.00000   0.00063  -0.00196   0.00000  -0.00427
  -1.78768   5.32640  -0.00080   0.00000  -0.00175   0.00546   0.00000   0.01184
   0.00029  -0.00080  -0.31744   0.00000  -0.00025   0.96055   0.00000   0.00124
   0.00000   0.00000   0.00000  -0.31705   0.00000   0.00000   0.95849   0.00000
   0.00063  -0.00175  -0.00025   0.00000  -0.31780   0.00124   0.00000   0.96232
  -0.00196   0.00546   0.96055   0.00000   0.00124  -0.33390   0.00000  -0.00593
   0.00000   0.00000   0.00000   0.95849   0.00000   0.00000  -0.32344   0.00000
[...]
                       1.000000  1.000000  1.000000  1.000000  1.000000  1.000000
                       1.000000  1.000000  1.000000  1.000000  1.000000  1.000000
                       1.000000  1.000000  1.000000  1.000000  1.000000  1.000000
                       1.000000  1.000000  1.000000  1.000000  1.000000  1.000000
                       1.000000  1.000000  1.000000  1.000000  1.000000  1.000000
                       1.000000  1.000000  1.000000  1.000000  1.000000  1.000000
                       1.000000  1.000000  1.000000  1.000000  1.000000  1.000000
                       1.000000  1.000000  1.000000  1.000000  1.000000  1.000000
                       1.000000  1.000000  1.000000  1.000000  1.000000  1.000000
                       1.000000  1.000000  1.000000  1.000000  1.000000  1.000000
                       1.000000  1.000000  1.000000  1.000000  1.000000  1.000000
                       1.000000  1.000000  1.000000  1.000000  1.000000  1.000000
                       1.000000  1.000000  1.000000  1.000000  1.000000  1.000000
                       1.000000  1.000000  1.000000  1.000000  0.000000  0.000000
                       0.000000  0.000000  0.000000  0.000000  0.000000  0.000000
                       0.000000  0.000000  0.000000  0.000000  0.000000  0.000000
                       0.000000  0.000000  0.000000  0.000000  0.000000  0.000000
                       0.000000  0.000000  0.000000  0.000000  0.000000  0.000000
                       0.000000
           occopt           2
        optforces           1
        paral_kgb           1
        pawecutdg      2.00000000E+01 Hartree
            prtwf          -1
            rprim      1.5040330226E+01  0.0000000000E+00  0.0000000000E+00
                       0.0000000000E+00  1.5040330226E+01  0.0000000000E+00
                       0.0000000000E+00  0.0000000000E+00  1.2033775962E+01
          spgroup          10
           spinat      0.0000000000E+00  0.0000000000E+00  7.0000000000E+00
                       0.0000000000E+00  0.0000000000E+00  0.0000000000E+00
                       0.0000000000E+00  0.0000000000E+00  0.0000000000E+00
                       0.0000000000E+00  0.0000000000E+00  0.0000000000E+00
                       0.0000000000E+00  0.0000000000E+00  0.0000000000E+00
                       0.0000000000E+00  0.0000000000E+00  0.0000000000E+00
                       0.0000000000E+00  0.0000000000E+00  0.0000000000E+00
                       0.0000000000E+00  0.0000000000E+00  0.0000000000E+00
                       0.0000000000E+00  0.0000000000E+00  0.0000000000E+00
                       0.0000000000E+00  0.0000000000E+00  0.0000000000E+00
                       0.0000000000E+00  0.0000000000E+00  0.0000000000E+00
                       0.0000000000E+00  0.0000000000E+00  0.0000000000E+00
                       0.0000000000E+00  0.0000000000E+00  0.0000000000E+00
                       0.0000000000E+00  0.0000000000E+00  0.0000000000E+00
                       0.0000000000E+00  0.0000000000E+00  0.0000000000E+00
                       0.0000000000E+00  0.0000000000E+00  0.0000000000E+00
                       0.0000000000E+00  0.0000000000E+00  0.0000000000E+00
                       0.0000000000E+00  0.0000000000E+00  0.0000000000E+00
                       0.0000000000E+00  0.0000000000E+00  0.0000000000E+00
                       0.0000000000E+00  0.0000000000E+00  0.0000000000E+00
                       0.0000000000E+00  0.0000000000E+00  0.0000000000E+00
                       0.0000000000E+00  0.0000000000E+00  0.0000000000E+00
                       0.0000000000E+00  0.0000000000E+00  0.0000000000E+00
                       0.0000000000E+00  0.0000000000E+00  0.0000000000E+00
                       0.0000000000E+00  0.0000000000E+00  0.0000000000E+00
                       0.0000000000E+00  0.0000000000E+00  0.0000000000E+00
                       0.0000000000E+00  0.0000000000E+00  0.0000000000E+00
                       0.0000000000E+00  0.0000000000E+00  0.0000000000E+00
                       0.0000000000E+00  0.0000000000E+00  0.0000000000E+00
                       0.0000000000E+00  0.0000000000E+00  0.0000000000E+00
                       0.0000000000E+00  0.0000000000E+00  0.0000000000E+00
                       0.0000000000E+00  0.0000000000E+00  0.0000000000E+00
                       0.0000000000E+00  0.0000000000E+00  0.0000000000E+00
                       0.0000000000E+00  0.0000000000E+00  0.0000000000E+00
                       0.0000000000E+00  0.0000000000E+00  0.0000000000E+00
                       0.0000000000E+00  0.0000000000E+00  0.0000000000E+00
           strten      4.1278721905E-04  4.4072439937E-04  5.7557373063E-05
                       0.0000000000E+00  0.0000000000E+00 -3.1994914848E-06
           symrel      1  0  0   0  1  0   0  0  1      -1  0  0   0 -1  0   0  0 -1
                      -1  0  0   0 -1  0   0  0  1       1  0  0   0  1  0   0  0 -1
            tnons      0.0000000  0.0000000  0.0000000    -0.0000000  0.0000000  0.5000000
                      -0.0000000  0.0000000  0.0000000     0.0000000  0.0000000  0.5000000
           toldff      1.00000000E-04
           tolmxf      1.00000000E-03
            typat      1  2  2  2  3  3  3  3  3  3  3  3  4  4  4  4  4  4  4  4
                       5  5  5  5  5  5  5  5  6  6  6  6  6  6  6  6
            upawu      2.57245278E-01  0.00000000E+00  0.00000000E+00  0.00000000E+00  0.00000000E+00  0.00000000E+00 Hartree
          usepawu           1
           useylm           1
         wfoptalg         114
           xangst      3.9794999826E+00  0.0000000000E+00  1.5919999931E+00
                       3.9794999826E+00  0.0000000000E+00  4.7759999793E+00
                      -8.8362650144E-16  3.9794999826E+00  3.9043416370E-03
                      -8.8362650144E-16  3.9794999826E+00  3.1800956445E+00
                       1.0032512095E+00  6.5606048025E+00  1.5919999931E+00
                       1.0169714041E+00  6.5691942129E+00  4.7759999793E+00
                       6.9557487557E+00  1.3983951628E+00  1.5919999931E+00
                       6.9420285612E+00  1.3898057524E+00  4.7759999793E+00
                       1.3959877532E+00  1.0097109046E+00  5.4183852583E-03
                       1.3959877532E+00  1.0097109046E+00  3.1785816009E+00
                       6.5630122121E+00  6.9492890607E+00  5.4183852583E-03
                       6.5630122121E+00  6.9492890607E+00  3.1785816009E+00
                       2.8018860460E+00  5.4352997056E+00  1.2027131874E-02
                       2.8018860460E+00  5.4352997056E+00  3.1719728543E+00
                       5.1571139192E+00  2.5237002597E+00  1.2027131874E-02
                       5.1571139192E+00  2.5237002597E+00  3.1719728543E+00
                       2.5231113703E+00  2.7864901708E+00  1.5919999931E+00
                       2.5389781859E+00  2.7710587064E+00  4.7759999793E+00
                       5.4358885950E+00  5.1725097945E+00  1.5919999931E+00
                       5.4200217794E+00  5.1879412588E+00  4.7759999793E+00
                       4.6447574705E+00  5.8596749928E+00  1.6862464567E-02
                       4.6447574705E+00  5.8596749928E+00  3.1671375216E+00
                       3.3142424947E+00  2.0993249724E+00  1.6862464567E-02
                       3.3142424947E+00  2.0993249724E+00  3.1671375216E+00
                       2.1321537653E+00  4.6342765480E+00  1.5919999931E+00
                       2.1690925807E+00  4.6385048932E+00  4.7759999793E+00
                       5.8268462000E+00  3.3247234173E+00  1.5919999931E+00
                       5.7899073845E+00  3.3204950720E+00  4.7759999793E+00
                       2.0268993142E+00  7.0655979106E+00  4.2813204144E-02
                       2.0268993142E+00  7.0655979106E+00  3.1411867820E+00
                       5.9321006510E+00  8.9340205465E-01  4.2813204144E-02
                       5.9321006510E+00  8.9340205465E-01  3.1411867820E+00
                       8.9575502950E-01  2.0095996096E+00  1.5919999931E+00
                       8.9660951770E-01  2.0056938424E+00  4.7759999793E+00
                       7.0632449358E+00  5.9494003557E+00  1.5919999931E+00
                       7.0623904476E+00  5.9533061228E+00  4.7759999793E+00
            xcart      7.5201651130E+00  0.0000000000E+00  3.0084439905E+00
                       7.5201651130E+00  0.0000000000E+00  9.0253319715E+00
                      -1.6698120915E-15  7.5201651130E+00  7.3781364232E-03
                      -1.6698120915E-15  7.5201651130E+00  6.0095098446E+00
                       1.8958700285E+00  1.2397746343E+01  3.0084439905E+00
                       1.9217974387E+00  1.2413977976E+01  9.0253319715E+00
                       1.3144460197E+01  2.6425838832E+00  3.0084439905E+00
                       1.3118532787E+01  2.6263522499E+00  9.0253319715E+00
                       2.6380345383E+00  1.9080770830E+00  1.0239264221E-02
                       2.6380345383E+00  1.9080770830E+00  6.0066487168E+00
                       1.2402295688E+01  1.3132253143E+01  1.0239264221E-02
                       1.2402295688E+01  1.3132253143E+01  6.0066487168E+00
                       5.2947972826E+00  1.0271227894E+01  2.2727985406E-02
                       5.2947972826E+00  1.0271227894E+01  5.9941599956E+00
                       9.7455329434E+00  4.7691023323E+00  2.2727985406E-02
                       9.7455329434E+00  4.7691023323E+00  5.9941599956E+00
                       4.7679894926E+00  5.2657032948E+00  3.0084439905E+00
                       4.7979734287E+00  5.2365420533E+00  9.0253319715E+00
                       1.0272340733E+01  9.7746269312E+00  3.0084439905E+00
                       1.0242356797E+01  9.8037881727E+00  9.0253319715E+00
                       8.7773195730E+00  1.1073180964E+01  3.1865439958E-02
                       8.7773195730E+00  1.1073180964E+01  5.9850225410E+00
                       6.2630106530E+00  3.9671492618E+00  3.1865439958E-02
                       6.2630106530E+00  3.9671492618E+00  5.9850225410E+00
                       4.0291866896E+00  8.7575134998E+00  3.0084439905E+00
                       4.0989909345E+00  8.7655039143E+00  9.0253319715E+00
                       1.1011143536E+01  6.2828167262E+00  3.0084439905E+00
                       1.0941339292E+01  6.2748263117E+00  9.0253319715E+00
                       3.8302846028E+00  1.3352045016E+01  8.0905230703E-02
                       3.8302846028E+00  1.3352045016E+01  5.9359827503E+00
                       1.1210045623E+01  1.6882852099E+00  8.0905230703E-02
                       1.1210045623E+01  1.6882852099E+00  5.9359827503E+00
                       1.6927316879E+00  3.7975928988E+00  3.0084439905E+00
                       1.6943464366E+00  3.7902120686E+00  9.0253319715E+00
                       1.3347598538E+01  1.1242737327E+01  3.0084439905E+00
                       1.3345983789E+01  1.1250118157E+01  9.0253319715E+00
             xred      5.0000000000E-01  0.0000000000E+00  2.5000000000E-01
                       5.0000000000E-01  0.0000000000E+00  7.5000000000E-01
                      -1.1102230246E-16  5.0000000000E-01  6.1311897832E-04
                      -1.1102230246E-16  5.0000000000E-01  4.9938688102E-01
                       1.2605242040E-01  8.2430014212E-01  2.5000000000E-01
                       1.2777627950E-01  8.2537934936E-01  7.5000000000E-01
                       8.7394757960E-01  1.7569985788E-01  2.5000000000E-01
                       8.7222372050E-01  1.7462065064E-01  7.5000000000E-01
                       1.7539738149E-01  1.2686404184E-01  8.5087708572E-04
                       1.7539738149E-01  1.2686404184E-01  4.9914912291E-01
                       8.2460261851E-01  8.7313595816E-01  8.5087708572E-04
                       8.2460261851E-01  8.7313595816E-01  4.9914912291E-01
                       3.5203996209E-01  6.8291239217E-01  1.8886827774E-03
                       3.5203996209E-01  6.8291239217E-01  4.9811131722E-01
                       6.4796003791E-01  3.1708760783E-01  1.8886827774E-03
                       6.4796003791E-01  3.1708760783E-01  4.9811131722E-01
                       3.1701361745E-01  3.5010556388E-01  2.5000000000E-01
                       3.1900718645E-01  3.4816669412E-01  7.5000000000E-01
                       6.8298638255E-01  6.4989443612E-01  2.5000000000E-01
                       6.8099281355E-01  6.5183330588E-01  7.5000000000E-01
                       5.8358556236E-01  7.3623256922E-01  2.6480001006E-03
                       5.8358556236E-01  7.3623256922E-01  4.9735199990E-01
                       4.1641443764E-01  2.6376743078E-01  2.6480001006E-03
                       4.1641443764E-01  2.6376743078E-01  4.9735199990E-01
                       2.6789216919E-01  5.8226869811E-01  2.5000000000E-01
                       2.7253330697E-01  5.8279996400E-01  7.5000000000E-01
                       7.3210783081E-01  4.1773130189E-01  2.5000000000E-01
                       7.2746669303E-01  4.1720003600E-01  7.5000000000E-01
                       2.5466758677E-01  8.8774945866E-01  6.7231790718E-03
                       2.5466758677E-01  8.8774945866E-01  4.9327682093E-01
                       7.4533241323E-01  1.1225054134E-01  6.7231790718E-03
                       7.4533241323E-01  1.1225054134E-01  4.9327682093E-01
                       1.1254617834E-01  2.5249398396E-01  2.5000000000E-01
                       1.1265353959E-01  2.5200324805E-01  7.5000000000E-01
                       8.8745382166E-01  7.4750601604E-01  2.5000000000E-01
                       8.8734646041E-01  7.4799675195E-01  7.5000000000E-01
            znucl       63.00000   38.00000    3.00000   13.00000    7.00000    8.00000

================================================================================


- Timing analysis has been suppressed with timopt=0



================================================================================

 Suggested references for the acknowledgment of ABINIT usage.

 The users of ABINIT have little formal obligations with respect to the ABINIT group
 (those specified in the GNU General Public License, http://www.gnu.org/copyleft/gpl.txt).
 However, it is common practice in the scientific literature,
 to acknowledge the efforts of people that have made the research possible.
 In this spirit, please find below suggested citations of work written by ABINIT developers,
 corresponding to implementations inside of ABINIT that you have used in the present run.
 Note also that it will be of great value to readers of publications presenting these results,
 to read papers enabling them to understand the theoretical formalism and details
 of the ABINIT implementation.
 For information on why they are suggested, see also https://docs.abinit.org/theory/acknowledgments.
-
- [1] Gamma and beta cerium: DFT+U calculations of ground-state parameters.
- B. Amadon, F. Jollet and M. Torrent, Phys. Rev. B 77, 155104 (2008).
- Comment: DFT+U calculations, usepawu/=0. Strong suggestion to cite this paper.
- DOI and bibtex: see https://docs.abinit.org/theory/bibliography/#amadon2008a
-
- [2] Implementation of the Projector Augmented-Wave Method in the ABINIT code.
- M. Torrent, F. Jollet, F. Bottin, G. Zerah, and X. Gonze Comput. Mat. Science 42, 337, (2008).
- Comment: PAW calculations. Strong suggestion to cite this paper.
- DOI and bibtex: see https://docs.abinit.org/theory/bibliography/#torrent2008
-
- [3] Libxc: A library of exchange and correlation functionals for density functional theory.
- M.A.L. Marques, M.J.T. Oliveira, T. Burnus, Computer Physics Communications 183, 2227 (2012).
- Comment: to be cited when LibXC is used (negative value of ixc)
- Strong suggestion to cite this paper.
- DOI and bibtex: see https://docs.abinit.org/theory/bibliography/#marques2012
-
- [4] Large scale ab initio calculations based on three levels of parallelization
- F. Bottin, S. Leroux, A. Knyazev, G. Zerah, Comput. Mat. Science 42, 329, (2008).
- Comment: in case LOBPCG algorithm is used (wfoptalg=4/14/114).
- Strong suggestion to cite this paper in your publications.
- This paper is also available at http://www.arxiv.org/abs/0707.3405
- DOI and bibtex: see https://docs.abinit.org/theory/bibliography/#bottin2008
-
- [5] The Abinit project: Impact, environment and recent developments.
- Computer Phys. Comm. 248, 107042 (2020).
- X.Gonze, B. Amadon, G. Antonius, F.Arnardi, L.Baguet, J.-M.Beuken,
- J.Bieder, F.Bottin, J.Bouchet, E.Bousquet, N.Brouwer, F.Bruneval,
- G.Brunin, T.Cavignac, J.-B. Charraud, Wei Chen, M.Cote, S.Cottenier,
- J.Denier, G.Geneste, Ph.Ghosez, M.Giantomassi, Y.Gillet, O.Gingras,
- D.R.Hamann, G.Hautier, Xu He, N.Helbig, N.Holzwarth, Y.Jia, F.Jollet,
- W.Lafargue-Dit-Hauret, K.Lejaeghere, M.A.L.Marques, A.Martin, C.Martins,
- H.P.C. Miranda, F.Naccarato, K. Persson, G.Petretto, V.Planes, Y.Pouillon,
- S.Prokhorenko, F.Ricci, G.-M.Rignanese, A.H.Romero, M.M.Schmitt, M.Torrent,
- M.J.van Setten, B.Van Troeye, M.J.Verstraete, G.Zerah and J.W.Zwanzig
- Comment: the fifth generic paper describing the ABINIT project.
- Note that a version of this paper, that is not formatted for Computer Phys. Comm. 
- is available at https://www.abinit.org/sites/default/files/ABINIT20.pdf .
- The licence allows the authors to put it on the Web.
- DOI and bibtex: see https://docs.abinit.org/theory/bibliography/#gonze2020
-
- [6] ABINIT: Overview, and focus on selected capabilities
- J. Chem. Phys. 152, 124102 (2020).
- A. Romero, D.C. Allan, B. Amadon, G. Antonius, T. Applencourt, L.Baguet,
- J.Bieder, F.Bottin, J.Bouchet, E.Bousquet, F.Bruneval,
- G.Brunin, D.Caliste, M.Cote,
- J.Denier, C. Dreyer, Ph.Ghosez, M.Giantomassi, Y.Gillet, O.Gingras,
- D.R.Hamann, G.Hautier, F.Jollet, G. Jomard,
- A.Martin, 
- H.P.C. Miranda, F.Naccarato, G.Petretto, N.A. Pike, V.Planes,
- S.Prokhorenko, T. Rangel, F.Ricci, G.-M.Rignanese, M.Royo, M.Stengel, M.Torrent,
- M.J.van Setten, B.Van Troeye, M.J.Verstraete, J.Wiktor, J.W.Zwanziger, and X.Gonze.
- Comment: a global overview of ABINIT, with focus on selected capabilities .
- Note that a version of this paper, that is not formatted for J. Chem. Phys 
- is available at https://www.abinit.org/sites/default/files/ABINIT20_JPC.pdf .
- The licence allows the authors to put it on the Web.
- DOI and bibtex: see https://docs.abinit.org/theory/bibliography/#romero2020
-
- [7] Recent developments in the ABINIT software package.
- Computer Phys. Comm. 205, 106 (2016).
- X.Gonze, F.Jollet, F.Abreu Araujo, D.Adams, B.Amadon, T.Applencourt,
- C.Audouze, J.-M.Beuken, J.Bieder, A.Bokhanchuk, E.Bousquet, F.Bruneval
- D.Caliste, M.Cote, F.Dahm, F.Da Pieve, M.Delaveau, M.Di Gennaro,
- B.Dorado, C.Espejo, G.Geneste, L.Genovese, A.Gerossier, M.Giantomassi,
- Y.Gillet, D.R.Hamann, L.He, G.Jomard, J.Laflamme Janssen, S.Le Roux,
- A.Levitt, A.Lherbier, F.Liu, I.Lukacevic, A.Martin, C.Martins,
- M.J.T.Oliveira, S.Ponce, Y.Pouillon, T.Rangel, G.-M.Rignanese,
- A.H.Romero, B.Rousseau, O.Rubel, A.A.Shukri, M.Stankovski, M.Torrent,
- M.J.Van Setten, B.Van Troeye, M.J.Verstraete, D.Waroquier, J.Wiktor,
- B.Xu, A.Zhou, J.W.Zwanziger.
- Comment: the fourth generic paper describing the ABINIT project.
- Note that a version of this paper, that is not formatted for Computer Phys. Comm. 
- is available at https://www.abinit.org/sites/default/files/ABINIT16.pdf .
- The licence allows the authors to put it on the Web.
- DOI and bibtex: see https://docs.abinit.org/theory/bibliography/#gonze2016
-
- Proc.   0 individual time (sec): cpu=        201.3  wall=        203.4

================================================================================

 Calculation completed.
.Delivered   0 WARNINGs and   0 COMMENTs to log file.
+Overall time at end (sec) : cpu=        402.5  wall=        406.9
