
.Version 9.6.2.38 of ABINIT 
.(MPI version, prepared for a aarch64_darwin21.6.0_gnu13.1 computer) 

.Copyright (C) 1998-2022 ABINIT group . 
 ABINIT comes with ABSOLUTELY NO WARRANTY.
 It is free software, and you are welcome to redistribute it
 under certain conditions (GNU General Public License,
 see ~abinit/COPYING or http://www.gnu.org/copyleft/gpl.txt).

 ABINIT is a project of the Universite Catholique de Louvain,
 Corning Inc. and other collaborators, see ~abinit/doc/developers/contributors.txt .
 Please read https://docs.abinit.org/theory/acknowledgments for suggested
 acknowledgments of the ABINIT effort.
 For more information, see https://www.abinit.org .

.Starting date : Mon 10 Jun 2024.
- ( at 13h54 )
  
- input  file    -> /Users/jbouquiaux/git/lumi_book/lumi_book/lumi/flow_deltaSCF/w0/t5/run.abi
- output file    -> /Users/jbouquiaux/git/lumi_book/lumi_book/lumi/flow_deltaSCF/w0/t5/run.abo
- root for input  files -> indata/in
- root for output files -> outdata/out

- inpspheads : Reading pseudopotential header in XML form from 
-   /Users/jbouquiaux/git/lumi_book/lumi_book/lumi/pseudos/Eu.xml
- inpspheads : Reading pseudopotential header in XML form from 
-   /Users/jbouquiaux/git/lumi_book/lumi_book/lumi/pseudos/Sr.xml
- inpspheads : Reading pseudopotential header in XML form from 
-   /Users/jbouquiaux/git/lumi_book/lumi_book/lumi/pseudos/Li.xml
- inpspheads : Reading pseudopotential header in XML form from 
-   /Users/jbouquiaux/git/lumi_book/lumi_book/lumi/pseudos/Al.xml
- inpspheads : Reading pseudopotential header in XML form from 
-   /Users/jbouquiaux/git/lumi_book/lumi_book/lumi/pseudos/N.xml
- inpspheads : Reading pseudopotential header in XML form from 
-   /Users/jbouquiaux/git/lumi_book/lumi_book/lumi/pseudos/O.xml
 Symmetries : space group P2/m (# 10); Bravais mP (primitive monocl.)
================================================================================
 Values of the parameters that define the memory need of the present run
     intxc =       0    ionmov =       0      iscf =      17    lmnmax =      32
     lnmax =       8     mgfft =      45  mpssoang =       4    mqgrid =    3028
     natom =      36  nloc_mem =       2    nspden =       2   nspinor =       1
    nsppol =       2      nsym =       4    n1xccc =       1    ntypat =       6
    occopt =       2   xclevel =       1
-    mband =         115        mffmem =           1         mkmem =           1
       mpw =        2071          nfft =       72900          nkpt =           1
Pmy_natom=        18
 PAW method is used; the additional fine FFT grid is defined by:
   mgfftf=        64    nfftf =    204800
================================================================================
P This job should need less than                     108.307 Mbytes of memory.
  Rough estimation (10% accuracy) of disk space for files :
_ WF disk file :      7.270 Mbytes ; DEN or POT disk file :      3.127 Mbytes.
================================================================================

--------------------------------------------------------------------------------
------------- Echo of variables that govern the present computation ------------
--------------------------------------------------------------------------------
-
- outvars: echo of selected default values                                      
-   iomode0 =  0 , fftalg0 =112 , wfoptalg0 = 10
-
- outvars: echo of global parameters not present in the input file              
-  max_nthreads =    0
-
 -outvars: echo values of preprocessed input variables --------
-          iomode           1
            acell      1.0000000000E+00  1.0000000000E+00  1.0000000000E+00 Bohr
              amu      1.51965000E+02  8.76200000E+01  6.94100000E+00
                       2.69815390E+01  1.40067400E+01  1.59994000E+01
          chkprim           0
      chksymbreak           0
     densfor_pred           6
           diemac      5.00000000E+00
             ecut      1.00000000E+01 Hartree
-          fftalg         112
           irdden           1
           istwfk        2
              ixc       -1012
            jpawu      2.57245278E-02  0.00000000E+00  0.00000000E+00  0.00000000E+00  0.00000000E+00  0.00000000E+00 Hartree
         kptrlatt        1    0    0      0    1    0      0    0    1
          kptrlen      1.20337760E+01
            lpawu           3      -1      -1      -1      -1      -1
P           mkmem           1
            natom          36
            nband         115     115
            ngfft          45      45      36
          ngfftdg          64      64      50
             nkpt           1
-        np_spkpt           2
           nspden           2
           nsppol           2
            nstep         100
             nsym           4
           ntypat           6
              occ      1.000000  1.000000  1.000000  1.000000  1.000000  1.000000
                       1.000000  1.000000  1.000000  1.000000  1.000000  1.000000
                       1.000000  1.000000  1.000000  1.000000  1.000000  1.000000
                       1.000000  1.000000  1.000000  1.000000  1.000000  1.000000
                       1.000000  1.000000  1.000000  1.000000  1.000000  1.000000
                       1.000000  1.000000  1.000000  1.000000  1.000000  1.000000
                       1.000000  1.000000  1.000000  1.000000  1.000000  1.000000
                       1.000000  1.000000  1.000000  1.000000  1.000000  1.000000
                       1.000000  1.000000  1.000000  1.000000  1.000000  1.000000
                       1.000000  1.000000  1.000000  1.000000  1.000000  1.000000
                       1.000000  1.000000  1.000000  1.000000  1.000000  1.000000
                       1.000000  1.000000  1.000000  1.000000  1.000000  1.000000
                       1.000000  1.000000  1.000000  1.000000  1.000000  1.000000
                       1.000000  1.000000  1.000000  1.000000  1.000000  1.000000
                       1.000000  1.000000  1.000000  1.000000  1.000000  1.000000
                       1.000000  1.000000  1.000000  1.000000  1.000000  0.000000
                       0.000000  0.000000  0.000000  0.000000  0.000000  0.000000
                       0.000000  0.000000  0.000000  0.000000  0.000000  0.000000
                       0.000000  0.000000  0.000000  0.000000  0.000000  0.000000
                       0.000000
                       1.000000  1.000000  1.000000  1.000000  1.000000  1.000000
                       1.000000  1.000000  1.000000  1.000000  1.000000  1.000000
                       1.000000  1.000000  1.000000  1.000000  1.000000  1.000000
                       1.000000  1.000000  1.000000  1.000000  1.000000  1.000000
                       1.000000  1.000000  1.000000  1.000000  1.000000  1.000000
                       1.000000  1.000000  1.000000  1.000000  1.000000  1.000000
                       1.000000  1.000000  1.000000  1.000000  1.000000  1.000000
                       1.000000  1.000000  1.000000  1.000000  1.000000  1.000000
                       1.000000  1.000000  1.000000  1.000000  1.000000  1.000000
                       1.000000  1.000000  1.000000  1.000000  1.000000  1.000000
                       1.000000  1.000000  1.000000  1.000000  1.000000  1.000000
                       1.000000  1.000000  1.000000  1.000000  1.000000  1.000000
                       1.000000  1.000000  1.000000  1.000000  1.000000  1.000000
                       1.000000  1.000000  1.000000  1.000000  1.000000  1.000000
                       1.000000  1.000000  1.000000  1.000000  0.000000  0.000000
                       0.000000  0.000000  0.000000  0.000000  0.000000  0.000000
                       0.000000  0.000000  0.000000  0.000000  0.000000  0.000000
                       0.000000  0.000000  0.000000  0.000000  0.000000  0.000000
                       0.000000  0.000000  0.000000  0.000000  0.000000  0.000000
                       0.000000
           occopt           2
        paral_kgb           1
        pawecutdg      2.00000000E+01 Hartree
            prtwf          -1
            rprim      1.5040330226E+01  0.0000000000E+00  0.0000000000E+00
                       0.0000000000E+00  1.5040330226E+01  0.0000000000E+00
                       0.0000000000E+00  0.0000000000E+00  1.2033775962E+01
          spgroup          10
           spinat      0.0000000000E+00  0.0000000000E+00  7.0000000000E+00
                       0.0000000000E+00  0.0000000000E+00  0.0000000000E+00
                       0.0000000000E+00  0.0000000000E+00  0.0000000000E+00
                       0.0000000000E+00  0.0000000000E+00  0.0000000000E+00
                       0.0000000000E+00  0.0000000000E+00  0.0000000000E+00
                       0.0000000000E+00  0.0000000000E+00  0.0000000000E+00
                       0.0000000000E+00  0.0000000000E+00  0.0000000000E+00
                       0.0000000000E+00  0.0000000000E+00  0.0000000000E+00
                       0.0000000000E+00  0.0000000000E+00  0.0000000000E+00
                       0.0000000000E+00  0.0000000000E+00  0.0000000000E+00
                       0.0000000000E+00  0.0000000000E+00  0.0000000000E+00
                       0.0000000000E+00  0.0000000000E+00  0.0000000000E+00
                       0.0000000000E+00  0.0000000000E+00  0.0000000000E+00
                       0.0000000000E+00  0.0000000000E+00  0.0000000000E+00
                       0.0000000000E+00  0.0000000000E+00  0.0000000000E+00
                       0.0000000000E+00  0.0000000000E+00  0.0000000000E+00
                       0.0000000000E+00  0.0000000000E+00  0.0000000000E+00
                       0.0000000000E+00  0.0000000000E+00  0.0000000000E+00
                       0.0000000000E+00  0.0000000000E+00  0.0000000000E+00
                       0.0000000000E+00  0.0000000000E+00  0.0000000000E+00
                       0.0000000000E+00  0.0000000000E+00  0.0000000000E+00
                       0.0000000000E+00  0.0000000000E+00  0.0000000000E+00
                       0.0000000000E+00  0.0000000000E+00  0.0000000000E+00
                       0.0000000000E+00  0.0000000000E+00  0.0000000000E+00
                       0.0000000000E+00  0.0000000000E+00  0.0000000000E+00
                       0.0000000000E+00  0.0000000000E+00  0.0000000000E+00
                       0.0000000000E+00  0.0000000000E+00  0.0000000000E+00
                       0.0000000000E+00  0.0000000000E+00  0.0000000000E+00
                       0.0000000000E+00  0.0000000000E+00  0.0000000000E+00
                       0.0000000000E+00  0.0000000000E+00  0.0000000000E+00
                       0.0000000000E+00  0.0000000000E+00  0.0000000000E+00
                       0.0000000000E+00  0.0000000000E+00  0.0000000000E+00
                       0.0000000000E+00  0.0000000000E+00  0.0000000000E+00
                       0.0000000000E+00  0.0000000000E+00  0.0000000000E+00
                       0.0000000000E+00  0.0000000000E+00  0.0000000000E+00
                       0.0000000000E+00  0.0000000000E+00  0.0000000000E+00
           symrel      1  0  0   0  1  0   0  0  1      -1  0  0   0 -1  0   0  0 -1
                      -1  0  0   0 -1  0   0  0  1       1  0  0   0  1  0   0  0 -1
            tnons      0.0000000  0.0000000  0.0000000    -0.0000000  0.0000000  0.5000000
                      -0.0000000  0.0000000  0.0000000     0.0000000  0.0000000  0.5000000
           toldfe      1.00000000E-06 Hartree
            typat      1  2  2  2  3  3  3  3  3  3  3  3  4  4  4  4  4  4  4  4
                       5  5  5  5  5  5  5  5  6  6  6  6  6  6  6  6
            upawu      2.57245278E-01  0.00000000E+00  0.00000000E+00  0.00000000E+00  0.00000000E+00  0.00000000E+00 Hartree
          usepawu           1
           useylm           1
         wfoptalg         114
           xangst      3.9794999826E+00  0.0000000000E+00  1.5919999931E+00
                       3.9794999826E+00  0.0000000000E+00  4.7759999793E+00
                      -4.4181325072E-16  3.9794999826E+00  3.9043417060E-03
                      -4.4181325072E-16  3.9794999826E+00  3.1800956445E+00
                       1.0032512096E+00  6.5606048023E+00  1.5919999931E+00
                       1.0169714041E+00  6.5691942132E+00  4.7759999793E+00
                       6.9557487557E+00  1.3983951629E+00  1.5919999931E+00
                       6.9420285612E+00  1.3898057521E+00  4.7759999793E+00
                       1.3959877533E+00  1.0097109043E+00  5.4183853038E-03
                       1.3959877533E+00  1.0097109043E+00  3.1785816009E+00
                       6.5630122120E+00  6.9492890610E+00  5.4183853038E-03
                       6.5630122120E+00  6.9492890610E+00  3.1785816009E+00
                       2.8018860461E+00  5.4352997058E+00  1.2027132018E-02
                       2.8018860461E+00  5.4352997058E+00  3.1719728542E+00
                       5.1571139191E+00  2.5237002595E+00  1.2027132018E-02
                       5.1571139191E+00  2.5237002595E+00  3.1719728542E+00
                       2.5231113707E+00  2.7864901709E+00  1.5919999931E+00
                       2.5389781859E+00  2.7710587062E+00  4.7759999793E+00
                       5.4358885946E+00  5.1725097943E+00  1.5919999931E+00
                       5.4200217794E+00  5.1879412590E+00  4.7759999793E+00
                       4.6447574709E+00  5.8596749927E+00  1.6862464564E-02
                       4.6447574709E+00  5.8596749927E+00  3.1671375216E+00
                       3.3142424944E+00  2.0993249726E+00  1.6862464564E-02
                       3.3142424944E+00  2.0993249726E+00  3.1671375216E+00
                       2.1321537654E+00  4.6342765480E+00  1.5919999931E+00
                       2.1690925809E+00  4.6385048932E+00  4.7759999793E+00
                       5.8268461999E+00  3.3247234173E+00  1.5919999931E+00
                       5.7899073843E+00  3.3204950720E+00  4.7759999793E+00
                       2.0268993145E+00  7.0655979110E+00  4.2813204323E-02
                       2.0268993145E+00  7.0655979110E+00  3.1411867819E+00
                       5.9321006508E+00  8.9340205431E-01  4.2813204323E-02
                       5.9321006508E+00  8.9340205431E-01  3.1411867819E+00
                       8.9575502918E-01  2.0095996099E+00  1.5919999931E+00
                       8.9660951776E-01  2.0056938425E+00  4.7759999793E+00
                       7.0632449361E+00  5.9494003554E+00  1.5919999931E+00
                       7.0623904475E+00  5.9533061228E+00  4.7759999793E+00
            xcart      7.5201651130E+00  0.0000000000E+00  3.0084439905E+00
                       7.5201651130E+00  0.0000000000E+00  9.0253319715E+00
                      -8.3490604574E-16  7.5201651130E+00  7.3781365536E-03
                      -8.3490604574E-16  7.5201651130E+00  6.0095098444E+00
                       1.8958700286E+00  1.2397746343E+01  3.0084439905E+00
                       1.9217974387E+00  1.2413977977E+01  9.0253319715E+00
                       1.3144460197E+01  2.6425838835E+00  3.0084439905E+00
                       1.3118532787E+01  2.6263522493E+00  9.0253319715E+00
                       2.6380345385E+00  1.9080770825E+00  1.0239264307E-02
                       2.6380345385E+00  1.9080770825E+00  6.0066487167E+00
                       1.2402295687E+01  1.3132253144E+01  1.0239264307E-02
                       1.2402295687E+01  1.3132253144E+01  6.0066487167E+00
                       5.2947972827E+00  1.0271227894E+01  2.2727985678E-02
                       5.2947972827E+00  1.0271227894E+01  5.9941599953E+00
                       9.7455329433E+00  4.7691023319E+00  2.2727985678E-02
                       9.7455329433E+00  4.7691023319E+00  5.9941599953E+00
                       4.7679894933E+00  5.2657032950E+00  3.0084439905E+00
                       4.7979734287E+00  5.2365420530E+00  9.0253319715E+00
                       1.0272340733E+01  9.7746269310E+00  3.0084439905E+00
                       1.0242356797E+01  9.8037881730E+00  9.0253319715E+00
                       8.7773195736E+00  1.1073180964E+01  3.1865439951E-02
                       8.7773195736E+00  1.1073180964E+01  5.9850225410E+00
                       6.2630106524E+00  3.9671492621E+00  3.1865439951E-02
                       6.2630106524E+00  3.9671492621E+00  5.9850225410E+00
                       4.0291866897E+00  8.7575134997E+00  3.0084439905E+00
                       4.0989909349E+00  8.7655039143E+00  9.0253319715E+00
                       1.1011143536E+01  6.2828167263E+00  3.0084439905E+00
                       1.0941339291E+01  6.2748263117E+00  9.0253319715E+00
                       3.8302846033E+00  1.3352045017E+01  8.0905231042E-02
                       3.8302846033E+00  1.3352045017E+01  5.9359827500E+00
                       1.1210045623E+01  1.6882852092E+00  8.0905231042E-02
                       1.1210045623E+01  1.6882852092E+00  5.9359827500E+00
                       1.6927316873E+00  3.7975928994E+00  3.0084439905E+00
                       1.6943464367E+00  3.7902120687E+00  9.0253319715E+00
                       1.3347598539E+01  1.1242737327E+01  3.0084439905E+00
                       1.3345983789E+01  1.1250118157E+01  9.0253319715E+00
             xred      5.0000000000E-01  0.0000000000E+00  2.5000000000E-01
                       5.0000000000E-01  0.0000000000E+00  7.5000000000E-01
                      -5.5511151231E-17  5.0000000000E-01  6.1311898916E-04
                      -5.5511151231E-17  5.0000000000E-01  4.9938688101E-01
                       1.2605242040E-01  8.2430014210E-01  2.5000000000E-01
                       1.2777627950E-01  8.2537934940E-01  7.5000000000E-01
                       8.7394757960E-01  1.7569985790E-01  2.5000000000E-01
                       8.7222372050E-01  1.7462065060E-01  7.5000000000E-01
                       1.7539738150E-01  1.2686404180E-01  8.5087709286E-04
                       1.7539738150E-01  1.2686404180E-01  4.9914912291E-01
                       8.2460261850E-01  8.7313595820E-01  8.5087709286E-04
                       8.2460261850E-01  8.7313595820E-01  4.9914912291E-01
                       3.5203996210E-01  6.8291239220E-01  1.8886828000E-03
                       3.5203996210E-01  6.8291239220E-01  4.9811131720E-01
                       6.4796003790E-01  3.1708760780E-01  1.8886828000E-03
                       6.4796003790E-01  3.1708760780E-01  4.9811131720E-01
                       3.1701361750E-01  3.5010556390E-01  2.5000000000E-01
                       3.1900718645E-01  3.4816669410E-01  7.5000000000E-01
                       6.8298638250E-01  6.4989443610E-01  2.5000000000E-01
                       6.8099281355E-01  6.5183330590E-01  7.5000000000E-01
                       5.8358556240E-01  7.3623256920E-01  2.6480001000E-03
                       5.8358556240E-01  7.3623256920E-01  4.9735199990E-01
                       4.1641443760E-01  2.6376743080E-01  2.6480001000E-03
                       4.1641443760E-01  2.6376743080E-01  4.9735199990E-01
                       2.6789216920E-01  5.8226869810E-01  2.5000000000E-01
                       2.7253330700E-01  5.8279996400E-01  7.5000000000E-01
                       7.3210783080E-01  4.1773130190E-01  2.5000000000E-01
                       7.2746669300E-01  4.1720003600E-01  7.5000000000E-01
                       2.5466758680E-01  8.8774945870E-01  6.7231791000E-03
                       2.5466758680E-01  8.8774945870E-01  4.9327682090E-01
                       7.4533241320E-01  1.1225054130E-01  6.7231791000E-03
                       7.4533241320E-01  1.1225054130E-01  4.9327682090E-01
                       1.1254617830E-01  2.5249398400E-01  2.5000000000E-01
                       1.1265353960E-01  2.5200324805E-01  7.5000000000E-01
                       8.8745382170E-01  7.4750601600E-01  2.5000000000E-01
                       8.8734646040E-01  7.4799675195E-01  7.5000000000E-01
            znucl       63.00000   38.00000    3.00000   13.00000    7.00000    8.00000

================================================================================

 chkinp: Checking input parameters for consistency.

================================================================================
== DATASET  1 ==================================================================
-   mpi_nproc: 2, omp_nthreads: -1 (-1 if OMP is not activated)


--- !DatasetInfo
iteration_state: {dtset: 1, }
dimensions: {natom: 36, nkpt: 1, mband: 115, nsppol: 2, nspinor: 1, nspden: 2, mpw: 2071, }
cutoff_energies: {ecut:  10.0, pawecutdg:  20.0, }
electrons: {nelect:   1.83000000E+02, charge:   0.00000000E+00, occopt:   2.00000000E+00, tsmear:   1.00000000E-02, }
meta: {optdriver: 0, ionmov: 0, optcell: 0, iscf: 17, paral_kgb: 1, }
...

 Real(R)+Recip(G) space primitive vectors, cartesian coordinates (Bohr,Bohr^-1):
 R(1)= 15.0403302  0.0000000  0.0000000  G(1)=  0.0664879  0.0000000  0.0000000
 R(2)=  0.0000000 15.0403302  0.0000000  G(2)=  0.0000000  0.0664879  0.0000000
 R(3)=  0.0000000  0.0000000 12.0337760  G(3)=  0.0000000  0.0000000  0.0830994
 Unit cell volume ucvol=  2.7221789E+03 bohr^3
 Angles (23,13,12)=  9.00000000E+01  9.00000000E+01  9.00000000E+01 degrees

 Coarse grid specifications (used for wave-functions):

 getcut: wavevector=  0.0000  0.0000  0.0000  ngfft=  45  45  36
         ecut(hartree)=     10.000   => boxcut(ratio)=   2.05509

 Fine grid specifications (used for densities):

 getcut: wavevector=  0.0000  0.0000  0.0000  ngfft=  64  64  50
         ecut(hartree)=     20.000   => boxcut(ratio)=   2.06390

--- Pseudopotential description ------------------------------------------------
- pspini: atom type   1  psp file is /Users/jbouquiaux/git/lumi_book/lumi_book/lumi/pseudos/Eu.xml
- pspatm: opening atomic psp file    /Users/jbouquiaux/git/lumi_book/lumi_book/lumi/pseudos/Eu.xml
- pspatm : Reading pseudopotential header in XML form from /Users/jbouquiaux/git/lumi_book/lumi_book/lumi/pseudos/Eu.xml
 Pseudopotential format is: paw10
 basis_size (lnmax)=  8 (lmn_size= 32), orbitals=   0   0   1   1   2   2   3   3
 Spheres core radius: rc_sph= 2.52170005
 1 radial meshes are used:
  - mesh 1: r(i)=AA*[exp(BB*(i-1))-1], size=1500 , AA= 0.14034E-03 BB= 0.88415E-02
 Shapefunction is SIN type: shapef(r)=[sin(pi*r/rshp)/(pi*r/rshp)]**2
 Radius for shape functions =  2.30830346
 mmax= 1500
 Radial grid used for partial waves is grid 1
 Radial grid used for projectors is grid 1
 Radial grid used for (t)core density is grid 1
 Radial grid used for Vloc is grid 1
 Radial grid used for pseudo valence density is grid 1
 Mesh size for Vloc has been set to 1343 to avoid numerical noise.
 Compensation charge density is not taken into account in XC energy/potential
 pspatm: atomic psp has been read  and splines computed

- pspini: atom type   2  psp file is /Users/jbouquiaux/git/lumi_book/lumi_book/lumi/pseudos/Sr.xml
- pspatm: opening atomic psp file    /Users/jbouquiaux/git/lumi_book/lumi_book/lumi/pseudos/Sr.xml
- pspatm : Reading pseudopotential header in XML form from /Users/jbouquiaux/git/lumi_book/lumi_book/lumi/pseudos/Sr.xml
 Pseudopotential format is: paw10
 basis_size (lnmax)=  6 (lmn_size= 18), orbitals=   0   0   1   1   2   2
 Spheres core radius: rc_sph= 2.20669967
 1 radial meshes are used:
  - mesh 1: r(i)=AA*[exp(BB*(i-1))-1], size=1500 , AA= 0.22443E-03 BB= 0.85283E-02
 Shapefunction is SIN type: shapef(r)=[sin(pi*r/rshp)/(pi*r/rshp)]**2
 Radius for shape functions =  1.81361893
 mmax= 1500
 Radial grid used for partial waves is grid 1
 Radial grid used for projectors is grid 1
 Radial grid used for (t)core density is grid 1
 Radial grid used for Vloc is grid 1
 Radial grid used for pseudo valence density is grid 1
 Mesh size for Vloc has been set to 1337 to avoid numerical noise.
 Compensation charge density is not taken into account in XC energy/potential
 pspatm: atomic psp has been read  and splines computed

- pspini: atom type   3  psp file is /Users/jbouquiaux/git/lumi_book/lumi_book/lumi/pseudos/Li.xml
- pspatm: opening atomic psp file    /Users/jbouquiaux/git/lumi_book/lumi_book/lumi/pseudos/Li.xml
- pspatm : Reading pseudopotential header in XML form from /Users/jbouquiaux/git/lumi_book/lumi_book/lumi/pseudos/Li.xml
 Pseudopotential format is: paw10
 basis_size (lnmax)=  5 (lmn_size=  9), orbitals=   0   0   0   1   1
 Spheres core radius: rc_sph= 1.60264751
 1 radial meshes are used:
  - mesh 1: r(i)=AA*[exp(BB*(i-1))-1], size=2001 , AA= 0.17851E-02 BB= 0.53552E-02
 Shapefunction is BESSEL type: shapef(r,l)=aa(1,l)*jl(q(1,l)*r)+aa(2,l)*jl(q(2,l)*r)
 Radius for shape functions =  1.30023672
 mmax= 2001
 Radial grid used for partial waves is grid 1
 Radial grid used for projectors is grid 1
 Radial grid used for (t)core density is grid 1
 Radial grid used for Vloc is grid 1
 Radial grid used for pseudo valence density is grid 1
 Mesh size for Vloc has been set to 1742 to avoid numerical noise.
 Compensation charge density is not taken into account in XC energy/potential
 pspatm: atomic psp has been read  and splines computed

- pspini: atom type   4  psp file is /Users/jbouquiaux/git/lumi_book/lumi_book/lumi/pseudos/Al.xml
- pspatm: opening atomic psp file    /Users/jbouquiaux/git/lumi_book/lumi_book/lumi/pseudos/Al.xml
- pspatm : Reading pseudopotential header in XML form from /Users/jbouquiaux/git/lumi_book/lumi_book/lumi/pseudos/Al.xml
 Pseudopotential format is: paw10
 basis_size (lnmax)=  4 (lmn_size=  8), orbitals=   0   0   1   1
 Spheres core radius: rc_sph= 1.90363307
 1 radial meshes are used:
  - mesh 1: r(i)=AA*[exp(BB*(i-1))-1], size=2001 , AA= 0.46377E-03 BB= 0.60291E-02
 Shapefunction is SIN type: shapef(r)=[sin(pi*r/rshp)/(pi*r/rshp)]**2
 Radius for shape functions =  1.60786206
 mmax= 2001
 Radial grid used for partial waves is grid 1
 Radial grid used for projectors is grid 1
 Radial grid used for (t)core density is grid 1
 Radial grid used for Vloc is grid 1
 Radial grid used for pseudo valence density is grid 1
 Mesh size for Vloc has been set to 1771 to avoid numerical noise.
 Compensation charge density is not taken into account in XC energy/potential
 pspatm: atomic psp has been read  and splines computed

- pspini: atom type   5  psp file is /Users/jbouquiaux/git/lumi_book/lumi_book/lumi/pseudos/N.xml
- pspatm: opening atomic psp file    /Users/jbouquiaux/git/lumi_book/lumi_book/lumi/pseudos/N.xml
- pspatm : Reading pseudopotential header in XML form from /Users/jbouquiaux/git/lumi_book/lumi_book/lumi/pseudos/N.xml
 Pseudopotential format is: paw10
 basis_size (lnmax)=  4 (lmn_size=  8), orbitals=   0   0   1   1
 Spheres core radius: rc_sph= 1.20000000
 1 radial meshes are used:
  - mesh 1: r(i)=AA*[exp(BB*(i-1))-1], size= 787 , AA= 0.19344E-02 BB= 0.13541E-01
 Shapefunction is SIN type: shapef(r)=[sin(pi*r/rshp)/(pi*r/rshp)]**2
 Radius for shape functions =  1.00599851
 mmax=  787
 Radial grid used for partial waves is grid 1
 Radial grid used for projectors is grid 1
 Radial grid used for (t)core density is grid 1
 Radial grid used for Vloc is grid 1
 Radial grid used for pseudo valence density is grid 1
 Mesh size for Vloc has been set to  683 to avoid numerical noise.
 Compensation charge density is not taken into account in XC energy/potential
 pspatm: atomic psp has been read  and splines computed

- pspini: atom type   6  psp file is /Users/jbouquiaux/git/lumi_book/lumi_book/lumi/pseudos/O.xml
- pspatm: opening atomic psp file    /Users/jbouquiaux/git/lumi_book/lumi_book/lumi/pseudos/O.xml
- pspatm : Reading pseudopotential header in XML form from /Users/jbouquiaux/git/lumi_book/lumi_book/lumi/pseudos/O.xml
 Pseudopotential format is: paw10
 basis_size (lnmax)=  4 (lmn_size=  8), orbitals=   0   0   1   1
 Spheres core radius: rc_sph= 1.41465230
 1 radial meshes are used:
  - mesh 1: r(i)=AA*[exp(BB*(i-1))-1], size=2001 , AA= 0.72565E-03 BB= 0.58052E-02
 Shapefunction is SIN type: shapef(r)=[sin(pi*r/rshp)/(pi*r/rshp)]**2
 Radius for shape functions =  1.20231231
 mmax= 2001
 Radial grid used for partial waves is grid 1
 Radial grid used for projectors is grid 1
 Radial grid used for (t)core density is grid 1
 Radial grid used for Vloc is grid 1
 Radial grid used for pseudo valence density is grid 1
 Mesh size for Vloc has been set to 1762 to avoid numerical noise.
 Compensation charge density is not taken into account in XC energy/potential
 pspatm: atomic psp has been read  and splines computed

   4.06209126E+04                                ecore*ucvol(ha*bohr**3)
--------------------------------------------------------------------------------

_setup2: Arith. and geom. avg. npw (full set) are    4141.000    4141.000


 ******************************************
 DFT+U Method used: FLL
 ******************************************

================================================================================

--- !BeginCycle
iteration_state: {dtset: 1, }
solver: {iscf: 17, nstep: 100, nline: 4, wfoptalg: 114, }
tolerances: {toldfe: 1.00E-06, }
...

     iter   Etot(hartree)      deltaE(h)  residm     nres2
 ETOT  1  -475.31161690264    -4.753E+02 1.107E-02 6.995E+00
 ETOT  2  -475.68584473178    -3.742E-01 2.446E-03 1.245E+02
 ETOT  3  -475.17131554449     5.145E-01 2.070E-02 7.660E+00
 ETOT  4  -475.51312469392    -3.418E-01 5.288E-04 3.861E+00
 ETOT  5  -475.52555869014    -1.243E-02 1.636E-04 3.494E+00
 ETOT  6  -475.51060189832     1.496E-02 2.158E-04 2.462E+00
 ETOT  7  -475.49866502309     1.194E-02 3.186E-04 1.671E+00
 ETOT  8  -475.49598882099     2.676E-03 3.254E-04 1.273E+00
 ETOT  9  -475.49697887988    -9.901E-04 3.457E-04 1.194E+00
 ETOT 10  -475.49611819260     8.607E-04 2.904E-04 1.155E+00
 ETOT 11  -475.41941856867     7.670E-02 6.455E-03 5.133E-01
 ETOT 12  -475.47875302328    -5.933E-02 1.994E-04 2.356E-02
 ETOT 13  -475.47900344088    -2.504E-04 1.207E-04 9.933E-03
 ETOT 14  -475.47901842344    -1.498E-05 6.793E-05 5.848E-03
 ETOT 15  -475.47905535723    -3.693E-05 1.372E-04 3.767E-03
 ETOT 16  -475.47906001620    -4.659E-06 1.089E-04 1.749E-03
 ETOT 17  -475.47905921843     7.978E-07 1.922E-04 8.994E-04
 ETOT 18  -475.47906031931    -1.101E-06 1.094E-04 2.459E-04
 ETOT 19  -475.47906079914    -4.798E-07 1.555E-04 9.848E-05
 ETOT 20  -475.47906117740    -3.783E-07 7.021E-05 1.702E-05

 At SCF step   20, etot is converged : 
  for the second time, diff in etot=  3.783E-07 < toldfe=  1.000E-06

 Cartesian components of stress tensor (hartree/bohr^3)
  sigma(1 1)=  2.64505184E-03  sigma(3 2)=  0.00000000E+00
  sigma(2 2)=  2.65065982E-03  sigma(3 1)=  0.00000000E+00
  sigma(3 3)=  2.45649681E-03  sigma(2 1)=  2.08424937E-06


--- !ResultsGS
iteration_state: {dtset: 1, }
comment   : Summary of ground state results
lattice_vectors:
- [ 15.0403302,   0.0000000,   0.0000000, ]
- [  0.0000000,  15.0403302,   0.0000000, ]
- [  0.0000000,   0.0000000,  12.0337760, ]
lattice_lengths: [  15.04033,   15.04033,   12.03378, ]
lattice_angles: [ 90.000,  90.000,  90.000, ] # degrees, (23, 13, 12)
lattice_volume:   2.7221789E+03
convergence: {deltae: -3.783E-07, res2:  1.702E-05, residm:  7.021E-05, diffor: null, }
etotal    :  -4.75479061E+02
entropy   :   0.00000000E+00
fermie    :   2.30599870E-01
cartesian_stress_tensor: # hartree/bohr^3
- [  2.64505184E-03,   2.08424937E-06,   0.00000000E+00, ]
- [  2.08424937E-06,   2.65065982E-03,   0.00000000E+00, ]
- [  0.00000000E+00,   0.00000000E+00,   2.45649681E-03, ]
pressure_GPa:  -7.6026E+01
xred      :
- [  5.0000E-01,   0.0000E+00,   2.5000E-01, Eu]
- [  5.0000E-01,   0.0000E+00,   7.5000E-01, Sr]
- [ -5.5511E-17,   5.0000E-01,   6.1312E-04, Sr]
- [ -5.5511E-17,   5.0000E-01,   4.9939E-01, Sr]
- [  1.2605E-01,   8.2430E-01,   2.5000E-01, Li]
- [  1.2778E-01,   8.2538E-01,   7.5000E-01, Li]
- [  8.7395E-01,   1.7570E-01,   2.5000E-01, Li]
- [  8.7222E-01,   1.7462E-01,   7.5000E-01, Li]
- [  1.7540E-01,   1.2686E-01,   8.5088E-04, Li]
- [  1.7540E-01,   1.2686E-01,   4.9915E-01, Li]
- [  8.2460E-01,   8.7314E-01,   8.5088E-04, Li]
- [  8.2460E-01,   8.7314E-01,   4.9915E-01, Li]
- [  3.5204E-01,   6.8291E-01,   1.8887E-03, Al]
- [  3.5204E-01,   6.8291E-01,   4.9811E-01, Al]
- [  6.4796E-01,   3.1709E-01,   1.8887E-03, Al]
- [  6.4796E-01,   3.1709E-01,   4.9811E-01, Al]
- [  3.1701E-01,   3.5011E-01,   2.5000E-01, Al]
- [  3.1901E-01,   3.4817E-01,   7.5000E-01, Al]
- [  6.8299E-01,   6.4989E-01,   2.5000E-01, Al]
- [  6.8099E-01,   6.5183E-01,   7.5000E-01, Al]
- [  5.8359E-01,   7.3623E-01,   2.6480E-03,  N]
- [  5.8359E-01,   7.3623E-01,   4.9735E-01,  N]
- [  4.1641E-01,   2.6377E-01,   2.6480E-03,  N]
- [  4.1641E-01,   2.6377E-01,   4.9735E-01,  N]
- [  2.6789E-01,   5.8227E-01,   2.5000E-01,  N]
- [  2.7253E-01,   5.8280E-01,   7.5000E-01,  N]
- [  7.3211E-01,   4.1773E-01,   2.5000E-01,  N]
- [  7.2747E-01,   4.1720E-01,   7.5000E-01,  N]
- [  2.5467E-01,   8.8775E-01,   6.7232E-03,  O]
- [  2.5467E-01,   8.8775E-01,   4.9328E-01,  O]
- [  7.4533E-01,   1.1225E-01,   6.7232E-03,  O]
- [  7.4533E-01,   1.1225E-01,   4.9328E-01,  O]
- [  1.1255E-01,   2.5249E-01,   2.5000E-01,  O]
- [  1.1265E-01,   2.5200E-01,   7.5000E-01,  O]
- [  8.8745E-01,   7.4751E-01,   2.5000E-01,  O]
- [  8.8735E-01,   7.4800E-01,   7.5000E-01,  O]
cartesian_forces: # hartree/bohr
- [  3.61400724E-20,  -2.10817089E-20,  -0.00000000E+00, ]
- [  3.61400724E-20,  -2.10817089E-20,  -0.00000000E+00, ]
- [  3.61400724E-20,  -2.10817090E-20,  -1.10233658E-03, ]
- [  3.61400724E-20,  -2.10817088E-20,   1.10233658E-03, ]
- [ -6.42666777E-06,   5.42587302E-04,  -0.00000000E+00, ]
- [  5.92833887E-05,   6.22733824E-05,  -0.00000000E+00, ]
- [  6.42666777E-06,  -5.42587302E-04,  -0.00000000E+00, ]
- [ -5.92833887E-05,  -6.22733824E-05,  -0.00000000E+00, ]
- [  1.99793979E-04,  -9.86753203E-04,   1.05295347E-03, ]
- [  1.99793979E-04,  -9.86753203E-04,  -1.05295347E-03, ]
- [ -1.99793979E-04,   9.86753203E-04,   1.05295347E-03, ]
- [ -1.99793979E-04,   9.86753203E-04,  -1.05295347E-03, ]
- [  9.91930419E-05,  -4.43615924E-05,  -5.00229203E-04, ]
- [  9.91930419E-05,  -4.43615924E-05,   5.00229203E-04, ]
- [ -9.91930419E-05,   4.43615924E-05,  -5.00229203E-04, ]
- [ -9.91930419E-05,   4.43615924E-05,   5.00229203E-04, ]
- [  3.74719538E-04,  -1.85725689E-03,  -0.00000000E+00, ]
- [  1.04369611E-05,   3.95015413E-03,  -0.00000000E+00, ]
- [ -3.74719538E-04,   1.85725689E-03,  -0.00000000E+00, ]
- [ -1.04369611E-05,  -3.95015413E-03,  -0.00000000E+00, ]
- [  1.25680365E-03,  -6.78180819E-03,  -5.86754518E-03, ]
- [  1.25680365E-03,  -6.78180819E-03,   5.86754518E-03, ]
- [ -1.25680365E-03,   6.78180819E-03,  -5.86754518E-03, ]
- [ -1.25680365E-03,   6.78180819E-03,   5.86754518E-03, ]
- [  2.27258730E-03,  -2.76682832E-04,  -0.00000000E+00, ]
- [  1.20678875E-03,   1.30257573E-03,  -0.00000000E+00, ]
- [ -2.27258730E-03,   2.76682832E-04,  -0.00000000E+00, ]
- [ -1.20678875E-03,  -1.30257573E-03,  -0.00000000E+00, ]
- [ -2.81950768E-03,  -3.66341259E-04,  -7.61775267E-03, ]
- [ -2.81950768E-03,  -3.66341259E-04,   7.61775267E-03, ]
- [  2.81950768E-03,   3.66341259E-04,  -7.61775267E-03, ]
- [  2.81950768E-03,   3.66341259E-04,   7.61775267E-03, ]
- [ -2.81193094E-03,   1.43323708E-03,   6.71271901E-29, ]
- [ -1.00434848E-03,   3.47148001E-04,   1.34254380E-28, ]
- [  2.81193094E-03,  -1.43323708E-03,  -6.71271901E-29, ]
- [  1.00434848E-03,  -3.47148001E-04,  -1.34254380E-28, ]
force_length_stats: {min:   4.18394943E-20, max:   9.05541629E-03, mean:   3.00944280E-03, }
...

 Integrated electronic and magnetization densities in atomic spheres:
 ---------------------------------------------------------------------
 Radius=ratsph(iatom), smearing ratsm=  0.0000. Diff(up-dn)=approximate z local magnetic moment.
 Atom    Radius    up_density   dn_density  Total(up+dn)  Diff(up-dn)
    1   2.52170    10.807461     3.936200     14.743661     6.871262
    2   2.20670     3.677171     3.675405      7.352576     0.001767
    3   2.20670     3.663437     3.662770      7.326208     0.000667
    4   2.20670     3.663437     3.662770      7.326208     0.000667
    5   1.60265     1.062945     1.062861      2.125806     0.000084
    6   1.60265     1.055834     1.055971      2.111806    -0.000137
    7   1.60265     1.062945     1.062861      2.125806     0.000084
    8   1.60265     1.055834     1.055971      2.111806    -0.000137
    9   1.60265     1.062042     1.061853      2.123895     0.000190
   10   1.60265     1.062042     1.061853      2.123895     0.000190
   11   1.60265     1.062042     1.061853      2.123895     0.000190
   12   1.60265     1.062042     1.061853      2.123895     0.000190
   13   1.90363     0.473543     0.473101      0.946644     0.000441
   14   1.90363     0.473543     0.473101      0.946644     0.000441
   15   1.90363     0.473543     0.473101      0.946644     0.000441
   16   1.90363     0.473543     0.473101      0.946644     0.000441
   17   1.90363     0.484557     0.483841      0.968398     0.000716
   18   1.90363     0.468283     0.469050      0.937333    -0.000766
   19   1.90363     0.484557     0.483841      0.968398     0.000716
   20   1.90363     0.468283     0.469050      0.937333    -0.000766
   21   1.20000     1.228184     1.232994      2.461177    -0.004810
   22   1.20000     1.228184     1.232994      2.461177    -0.004810
   23   1.20000     1.228184     1.232994      2.461177    -0.004810
   24   1.20000     1.228184     1.232994      2.461177    -0.004810
   25   1.20000     1.237784     1.237644      2.475428     0.000140
   26   1.20000     1.229404     1.230582      2.459986    -0.001179
   27   1.20000     1.237784     1.237644      2.475428     0.000140
   28   1.20000     1.229404     1.230582      2.459986    -0.001179
   29   1.41465     2.298717     2.305541      4.604258    -0.006824
   30   1.41465     2.298717     2.305541      4.604258    -0.006824
   31   1.41465     2.298717     2.305541      4.604258    -0.006824
   32   1.41465     2.298717     2.305541      4.604258    -0.006824
   33   1.41465     2.292315     2.292452      4.584766    -0.000137
   34   1.41465     2.289381     2.289717      4.579098    -0.000336
   35   1.41465     2.292315     2.292452      4.584766    -0.000137
   36   1.41465     2.289381     2.289717      4.579098    -0.000336
 ---------------------------------------------------------------------
  Sum:             62.302453    55.475335    117.777789     6.827118
 Total magnetization (from the atomic spheres):             6.827118
 Total magnetization (exact up - dn):                       7.000052

 PAW TEST:
 ==== Compensation charge inside spheres ============
 The following values must be close to each other ...
 Compensation charge over spherical meshes =     16.154950736775788
 Compensation charge over fine fft grid    =     16.155475614876142

 ==== Results concerning PAW augmentation regions ====

 Total pseudopotential strength Dij (hartree):
 Atom #  1 - Spin component 1
  -0.75278  -0.08175   0.00000   0.00000   0.00000   0.00000   0.00000   0.00000  -0.00001   0.00000   0.00007   0.00000 ...
  -0.08175  -0.10065   0.00000   0.00000   0.00000   0.00000   0.00000   0.00000  -0.00000   0.00000   0.00001   0.00000 ...
   0.00000   0.00000  -0.71363   0.00000   0.00008   0.14509   0.00000  -0.00022   0.00000   0.00000   0.00000   0.00000 ...
   0.00000   0.00000   0.00000  -0.71361   0.00000   0.00000   0.14530   0.00000   0.00000   0.00000   0.00000   0.00000 ...
   0.00000   0.00000   0.00008   0.00000  -0.71348  -0.00022   0.00000   0.14470   0.00000   0.00000   0.00000   0.00000 ...
   0.00000   0.00000   0.14509   0.00000  -0.00022   0.89059   0.00000   0.00010   0.00000   0.00000   0.00000   0.00000 ...
   0.00000   0.00000   0.00000   0.14530   0.00000   0.00000   0.89069   0.00000   0.00000   0.00000   0.00000   0.00000 ...
   0.00000   0.00000  -0.00022   0.00000   0.14470   0.00010   0.00000   0.89073   0.00000   0.00000   0.00000   0.00000 ...
  -0.00001  -0.00000   0.00000   0.00000   0.00000   0.00000   0.00000   0.00000  -0.18501   0.00000  -0.00001   0.00000 ...
   0.00000   0.00000   0.00000   0.00000   0.00000   0.00000   0.00000   0.00000   0.00000  -0.18500   0.00000   0.00000 ...
   0.00007   0.00001   0.00000   0.00000   0.00000   0.00000   0.00000   0.00000  -0.00001   0.00000  -0.18499   0.00000 ...
   0.00000   0.00000   0.00000   0.00000   0.00000   0.00000   0.00000   0.00000   0.00000   0.00000   0.00000  -0.18499 ...
   ...  only 12  components have been written...
 Atom #  1 - Spin component 2
  -0.67915  -0.07111   0.00000   0.00000   0.00000   0.00000   0.00000   0.00000   0.00004   0.00000   0.00010   0.00000 ...
  -0.07111  -0.09843   0.00000   0.00000   0.00000   0.00000   0.00000   0.00000   0.00001   0.00000   0.00001   0.00000 ...
   0.00000   0.00000  -0.64959   0.00000   0.00016   0.08204   0.00000  -0.00029   0.00000   0.00000   0.00000   0.00000 ...
   0.00000   0.00000   0.00000  -0.64943   0.00000   0.00000   0.08211   0.00000   0.00000   0.00000   0.00000   0.00000 ...
   0.00000   0.00000   0.00016   0.00000  -0.64931  -0.00029   0.00000   0.08151   0.00000   0.00000   0.00000   0.00000 ...
   0.00000   0.00000   0.08204   0.00000  -0.00029   0.95787   0.00000   0.00018   0.00000   0.00000   0.00000   0.00000 ...
   0.00000   0.00000   0.00000   0.08211   0.00000   0.00000   0.95811   0.00000   0.00000   0.00000   0.00000   0.00000 ...
   0.00000   0.00000  -0.00029   0.00000   0.08151   0.00018   0.00000   0.95815   0.00000   0.00000   0.00000   0.00000 ...
   0.00004   0.00001   0.00000   0.00000   0.00000   0.00000   0.00000   0.00000  -0.16901   0.00000  -0.00002   0.00000 ...
   0.00000   0.00000   0.00000   0.00000   0.00000   0.00000   0.00000   0.00000   0.00000  -0.16893   0.00000   0.00002 ...
   0.00010   0.00001   0.00000   0.00000   0.00000   0.00000   0.00000   0.00000  -0.00002   0.00000  -0.16902   0.00000 ...
   0.00000   0.00000   0.00000   0.00000   0.00000   0.00000   0.00000   0.00000   0.00000   0.00002   0.00000  -0.16892 ...
   ...  only 12  components have been written...
 Atom # 36 - Spin component 1
   0.60672  -1.78432   0.00029   0.00000   0.00065  -0.00194   0.00000  -0.00439
  -1.78432   5.31499  -0.00080   0.00000  -0.00180   0.00542   0.00000   0.01220
   0.00029  -0.00080  -0.31622   0.00000  -0.00024   0.95396   0.00000   0.00121
   0.00000   0.00000   0.00000  -0.31581   0.00000   0.00000   0.95178   0.00000
   0.00065  -0.00180  -0.00024   0.00000  -0.31663   0.00121   0.00000   0.95598
  -0.00194   0.00542   0.95396   0.00000   0.00121  -0.29881   0.00000  -0.00579
   0.00000   0.00000   0.00000   0.95178   0.00000   0.00000  -0.28778   0.00000
  -0.00439   0.01220   0.00121   0.00000   0.95598  -0.00579   0.00000  -0.30836
 Atom # 36 - Spin component 2
   0.60672  -1.78431   0.00029   0.00000   0.00065  -0.00194   0.00000  -0.00439
  -1.78431   5.31496  -0.00080   0.00000  -0.00179   0.00541   0.00000   0.01218
   0.00029  -0.00080  -0.31623   0.00000  -0.00024   0.95400   0.00000   0.00119
   0.00000   0.00000   0.00000  -0.31582   0.00000   0.00000   0.95182   0.00000
   0.00065  -0.00179  -0.00024   0.00000  -0.31664   0.00119   0.00000   0.95603
  -0.00194   0.00541   0.95400   0.00000   0.00119  -0.29900   0.00000  -0.00570
   0.00000   0.00000   0.00000   0.95182   0.00000   0.00000  -0.28794   0.00000
  -0.00439   0.01218   0.00119   0.00000   0.95603  -0.00570   0.00000  -0.30861


 Augmentation waves occupancies Rhoij:
 Atom #  1 - Spin component 1
   0.98958   0.00930   0.00000   0.00000   0.00000   0.00000   0.00000   0.00000  -0.00067   0.00000  -0.00327   0.00000 ...
   0.00930   0.11214   0.00000   0.00000   0.00000   0.00000   0.00000   0.00000  -0.00027   0.00000   0.00863   0.00000 ...
   0.00000   0.00000   0.99795   0.00000   0.00094   0.01473   0.00000  -0.00051   0.00000   0.00000   0.00000   0.00000 ...
   0.00000   0.00000   0.00000   0.99663   0.00000   0.00000   0.01622   0.00000   0.00000   0.00000   0.00000   0.00000 ...
   0.00000   0.00000   0.00094   0.00000   0.99719  -0.00051   0.00000   0.01524   0.00000   0.00000   0.00000   0.00000 ...
   0.00000   0.00000   0.01473   0.00000  -0.00051   0.00514   0.00000   0.00012   0.00000   0.00000   0.00000   0.00000 ...
   0.00000   0.00000   0.00000   0.01622   0.00000   0.00000   0.00464   0.00000   0.00000   0.00000   0.00000   0.00000 ...
   0.00000   0.00000  -0.00051   0.00000   0.01524   0.00012   0.00000   0.00427   0.00000   0.00000   0.00000   0.00000 ...
  -0.00067  -0.00027   0.00000   0.00000   0.00000   0.00000   0.00000   0.00000   0.03538   0.00000  -0.00016   0.00000 ...
   0.00000   0.00000   0.00000   0.00000   0.00000   0.00000   0.00000   0.00000   0.00000   0.06344   0.00000  -0.00531 ...
  -0.00327   0.00863   0.00000   0.00000   0.00000   0.00000   0.00000   0.00000  -0.00016   0.00000   0.01599   0.00000 ...
   0.00000   0.00000   0.00000   0.00000   0.00000   0.00000   0.00000   0.00000   0.00000  -0.00531   0.00000   0.05214 ...
   ...  only 12  components have been written...
 Atom #  1 - Spin component 2
   0.93668   0.10759   0.00000   0.00000   0.00000   0.00000   0.00000   0.00000  -0.00107   0.00000  -0.00235   0.00000 ...
   0.10759   0.10640   0.00000   0.00000   0.00000   0.00000   0.00000   0.00000   0.00011   0.00000   0.00619   0.00000 ...
   0.00000   0.00000   0.98392   0.00000   0.00121   0.03648   0.00000  -0.00048   0.00000   0.00000   0.00000   0.00000 ...
   0.00000   0.00000   0.00000   0.98258   0.00000   0.00000   0.03794   0.00000   0.00000   0.00000   0.00000   0.00000 ...
   0.00000   0.00000   0.00121   0.00000   0.98306  -0.00049   0.00000   0.03696   0.00000   0.00000   0.00000   0.00000 ...
   0.00000   0.00000   0.03648   0.00000  -0.00049   0.00545   0.00000   0.00008   0.00000   0.00000   0.00000   0.00000 ...
   0.00000   0.00000   0.00000   0.03794   0.00000   0.00000   0.00511   0.00000   0.00000   0.00000   0.00000   0.00000 ...
   0.00000   0.00000  -0.00048   0.00000   0.03696   0.00008   0.00000   0.00473   0.00000   0.00000   0.00000   0.00000 ...
  -0.00107   0.00011   0.00000   0.00000   0.00000   0.00000   0.00000   0.00000   0.02538   0.00000  -0.00006   0.00000 ...
   0.00000   0.00000   0.00000   0.00000   0.00000   0.00000   0.00000   0.00000   0.00000   0.04625   0.00000  -0.00354 ...
  -0.00235   0.00619   0.00000   0.00000   0.00000   0.00000   0.00000   0.00000  -0.00006   0.00000   0.01132   0.00000 ...
   0.00000   0.00000   0.00000   0.00000   0.00000   0.00000   0.00000   0.00000   0.00000  -0.00354   0.00000   0.03789 ...
   ...  only 12  components have been written...
 Atom # 36 - Spin component 1
   0.99590   0.01382   0.00005   0.00000  -0.00496  -0.00049   0.00000  -0.00159
   0.01382   0.00034  -0.00198   0.00000  -0.00501  -0.00013   0.00000  -0.00029
   0.00005  -0.00198   1.07044   0.00000   0.01101   0.04987   0.00000   0.00150
   0.00000   0.00000   0.00000   1.10856   0.00000   0.00000   0.05057   0.00000
  -0.00496  -0.00501   0.01101   0.00000   1.09614   0.00157   0.00000   0.05290
  -0.00049  -0.00013   0.04987   0.00000   0.00157   0.00234   0.00000   0.00012
   0.00000   0.00000   0.00000   0.05057   0.00000   0.00000   0.00233   0.00000
  -0.00159  -0.00029   0.00150   0.00000   0.05290   0.00012   0.00000   0.00258
 Atom # 36 - Spin component 2
   0.99592   0.01383   0.00009   0.00000  -0.00490  -0.00049   0.00000  -0.00159
   0.01383   0.00034  -0.00199   0.00000  -0.00503  -0.00013   0.00000  -0.00029
   0.00009  -0.00199   1.07073   0.00000   0.01079   0.04988   0.00000   0.00149
   0.00000   0.00000   0.00000   1.10866   0.00000   0.00000   0.05058   0.00000
  -0.00490  -0.00503   0.01079   0.00000   1.09645   0.00156   0.00000   0.05291
  -0.00049  -0.00013   0.04988   0.00000   0.00156   0.00234   0.00000   0.00012
   0.00000   0.00000   0.00000   0.05058   0.00000   0.00000   0.00233   0.00000
  -0.00159  -0.00029   0.00149   0.00000   0.05291   0.00012   0.00000   0.00258

 "PAW+U" part of augmentation waves occupancies Rhoij:
 Atom #  1 - L=3 ONLY - Spin component 1
   1.21942   0.00000   0.00122   0.00000   0.00065   0.00000   0.00080   0.07514   0.00000   0.00035   0.00000   0.00111   0.00000   0.00086
   0.00000   1.21496   0.00000   0.00055   0.00000  -0.00810   0.00000   0.00000   0.07470   0.00000   0.00009   0.00000  -0.00095   0.00000
   0.00122   0.00000   1.22979   0.00000  -0.00139   0.00000  -0.00251   0.00034   0.00000   0.07984   0.00000  -0.00081   0.00000  -0.00075
   0.00000   0.00055   0.00000   1.22544   0.00000   0.00312   0.00000   0.00000   0.00008   0.00000   0.07582   0.00000   0.00161   0.00000
   0.00065   0.00000  -0.00139   0.00000   1.22326   0.00000   0.00349   0.00114   0.00000  -0.00078   0.00000   0.07593   0.00000   0.00198
   0.00000  -0.00810   0.00000   0.00312   0.00000   1.21284   0.00000   0.00000  -0.00097   0.00000   0.00162   0.00000   0.07459   0.00000
   0.00080   0.00000  -0.00251   0.00000   0.00349   0.00000   1.22368   0.00083   0.00000  -0.00075   0.00000   0.00193   0.00000   0.07728
   0.07514   0.00000   0.00034   0.00000   0.00114   0.00000   0.00083   0.00661   0.00000   0.00005   0.00000   0.00050   0.00000  -0.00005
   0.00000   0.07470   0.00000   0.00008   0.00000  -0.00097   0.00000   0.00000   0.00860   0.00000  -0.00018   0.00000   0.00225   0.00000
   0.00035   0.00000   0.07984   0.00000  -0.00078   0.00000  -0.00075   0.00005   0.00000   0.00718   0.00000   0.00006   0.00000   0.00021
   0.00000   0.00009   0.00000   0.07582   0.00000   0.00162   0.00000   0.00000  -0.00018   0.00000   0.00723   0.00000   0.00073   0.00000
   0.00111   0.00000  -0.00081   0.00000   0.07593   0.00000   0.00193   0.00050   0.00000   0.00006   0.00000   0.00656   0.00000   0.00015
   0.00000  -0.00095   0.00000   0.00161   0.00000   0.07459   0.00000   0.00000   0.00225   0.00000   0.00073   0.00000   0.00882   0.00000
   0.00086   0.00000  -0.00075   0.00000   0.00198   0.00000   0.07728  -0.00005   0.00000   0.00021   0.00000   0.00015   0.00000   0.00677
 Atom #  1 - L=3 ONLY - Spin component 2
   0.01159   0.00000   0.00001   0.00000   0.00251   0.00000  -0.00072   0.00497   0.00000   0.00002   0.00000   0.00102   0.00000  -0.00033
   0.00000   0.02316   0.00000  -0.00096   0.00000   0.01378   0.00000   0.00000   0.00984   0.00000  -0.00044   0.00000   0.00577   0.00000
   0.00001   0.00000   0.01210   0.00000   0.00083   0.00000   0.00222   0.00001   0.00000   0.00516   0.00000   0.00037   0.00000   0.00088
   0.00000  -0.00096   0.00000   0.01509   0.00000   0.00328   0.00000   0.00000  -0.00043   0.00000   0.00644   0.00000   0.00140   0.00000
   0.00251   0.00000   0.00083   0.00000   0.01074   0.00000  -0.00044   0.00104   0.00000   0.00036   0.00000   0.00460   0.00000  -0.00018
   0.00000   0.01378   0.00000   0.00328   0.00000   0.02434   0.00000   0.00000   0.00577   0.00000   0.00139   0.00000   0.01038   0.00000
  -0.00072   0.00000   0.00222   0.00000  -0.00044   0.00000   0.01094  -0.00032   0.00000   0.00088   0.00000  -0.00017   0.00000   0.00471
   0.00497   0.00000   0.00001   0.00000   0.00104   0.00000  -0.00032   0.00213   0.00000   0.00001   0.00000   0.00043   0.00000  -0.00015
   0.00000   0.00984   0.00000  -0.00043   0.00000   0.00577   0.00000   0.00000   0.00419   0.00000  -0.00020   0.00000   0.00242   0.00000
   0.00002   0.00000   0.00516   0.00000   0.00036   0.00000   0.00088   0.00001   0.00000   0.00220   0.00000   0.00016   0.00000   0.00035
   0.00000  -0.00044   0.00000   0.00644   0.00000   0.00139   0.00000   0.00000  -0.00020   0.00000   0.00276   0.00000   0.00059   0.00000
   0.00102   0.00000   0.00037   0.00000   0.00460   0.00000  -0.00017   0.00043   0.00000   0.00016   0.00000   0.00197   0.00000  -0.00007
   0.00000   0.00577   0.00000   0.00140   0.00000   0.01038   0.00000   0.00000   0.00242   0.00000   0.00059   0.00000   0.00443   0.00000
  -0.00033   0.00000   0.00088   0.00000  -0.00018   0.00000   0.00471  -0.00015   0.00000   0.00035   0.00000  -0.00007   0.00000   0.00203

 ---------- DFT+U DATA --------------------------------------------------- 

 ====== For Atom     1, occupations for correlated orbitals. lpawu =   3

 Atom   1. Occ. for lpawu and for spin  1 =   6.81609
 Atom   1. Occ. for lpawu and for spin  2 =   0.01830
 => On atom   1,  local Mag. for lpawu is       -6.797781

 == Occupation matrix for correlated orbitals:

 Occupation matrix for spin  1
     0.97267    0.00000    0.00022    0.00000   -0.00144    0.00000   -0.00224
     0.00000    0.97653    0.00000   -0.00036    0.00000    0.00293    0.00000
     0.00022    0.00000    0.96902    0.00000    0.00153    0.00000    0.00075
     0.00000   -0.00036    0.00000    0.97845    0.00000    0.00013    0.00000
    -0.00144    0.00000    0.00153    0.00000    0.97362    0.00000   -0.00264
     0.00000    0.00293    0.00000    0.00013    0.00000    0.97559    0.00000
    -0.00224    0.00000    0.00075    0.00000   -0.00264    0.00000    0.97020


 Occupation matrix for spin  2
     0.00196    0.00000   -0.00000    0.00000    0.00045    0.00000   -0.00011
     0.00000    0.00395    0.00000   -0.00015    0.00000    0.00239    0.00000
    -0.00000    0.00000    0.00205    0.00000    0.00013    0.00000    0.00041
     0.00000   -0.00015    0.00000    0.00258    0.00000    0.00056    0.00000
     0.00045    0.00000    0.00013    0.00000    0.00181    0.00000   -0.00008
     0.00000    0.00239    0.00000    0.00056    0.00000    0.00413    0.00000
    -0.00011    0.00000    0.00041    0.00000   -0.00008    0.00000    0.00183



================================================================================

 ----iterations are completed or convergence reached----

GS calculation converged with prtwf=-1 --> Skipping WFK file output
 reduced coordinates (array xred) for   36 atoms
       0.500000000000      0.000000000000      0.250000000000
       0.500000000000      0.000000000000      0.750000000000
      -0.000000000000      0.500000000000      0.000613118989
      -0.000000000000      0.500000000000      0.499386881011
       0.126052420400      0.824300142100      0.250000000000
       0.127776279500      0.825379349400      0.750000000000
       0.873947579600      0.175699857900      0.250000000000
       0.872223720500      0.174620650600      0.750000000000
       0.175397381500      0.126864041800      0.000850877093
       0.175397381500      0.126864041800      0.499149122907
       0.824602618500      0.873135958200      0.000850877093
       0.824602618500      0.873135958200      0.499149122907
       0.352039962100      0.682912392200      0.001888682800
       0.352039962100      0.682912392200      0.498111317200
       0.647960037900      0.317087607800      0.001888682800
       0.647960037900      0.317087607800      0.498111317200
       0.317013617500      0.350105563900      0.250000000000
       0.319007186450      0.348166694100      0.750000000000
       0.682986382500      0.649894436100      0.250000000000
       0.680992813550      0.651833305900      0.750000000000
       0.583585562400      0.736232569200      0.002648000100
       0.583585562400      0.736232569200      0.497351999900
       0.416414437600      0.263767430800      0.002648000100
       0.416414437600      0.263767430800      0.497351999900
       0.267892169200      0.582268698100      0.250000000000
       0.272533307000      0.582799964000      0.750000000000
       0.732107830800      0.417731301900      0.250000000000
       0.727466693000      0.417200036000      0.750000000000
       0.254667586800      0.887749458700      0.006723179100
       0.254667586800      0.887749458700      0.493276820900
       0.745332413200      0.112250541300      0.006723179100
       0.745332413200      0.112250541300      0.493276820900
       0.112546178300      0.252493984000      0.250000000000
       0.112653539600      0.252003248050      0.750000000000
       0.887453821700      0.747506016000      0.250000000000
       0.887346460400      0.747996751950      0.750000000000
 rms dE/dt=  3.3832E-02; max dE/dt=  1.0200E-01; dE/dt below (all hartree)
    1       0.000000000000      0.000000000000      0.000000000000
    2       0.000000000000      0.000000000000      0.000000000000
    3       0.000000000000      0.000000000000      0.013265271481
    4       0.000000000000     -0.000000000000     -0.013265271481
    5       0.000096659205     -0.008160692195      0.000000000000
    6      -0.000891641743     -0.000936612235      0.000000000000
    7      -0.000096659205      0.008160692195      0.000000000000
    8       0.000891641743      0.000936612235      0.000000000000
    9      -0.003004967418      0.014841094024     -0.012671006105
   10      -0.003004967418      0.014841094024      0.012671006105
   11       0.003004967418     -0.014841094024     -0.012671006105
   12       0.003004967418     -0.014841094024      0.012671006105
   13      -0.001491896106      0.000667212999      0.006019646162
   14      -0.001491896106      0.000667212999     -0.006019646162
   15       0.001491896106     -0.000667212999      0.006019646162
   16       0.001491896106     -0.000667212999     -0.006019646162
   17      -0.005635905591      0.027933756947      0.000000000000
   18      -0.000156975342     -0.059411622543      0.000000000000
   19       0.005635905591     -0.027933756947      0.000000000000
   20       0.000156975342      0.059411622543      0.000000000000
   21      -0.018902741880      0.102000634692      0.070608724116
   22      -0.018902741880      0.102000634692     -0.070608724116
   23       0.018902741880     -0.102000634692      0.070608724116
   24       0.018902741880     -0.102000634692     -0.070608724116
   25      -0.034180463401      0.004161401157      0.000000000000
   26      -0.018150501298     -0.019591169141      0.000000000000
   27       0.034180463401     -0.004161401157      0.000000000000
   28       0.018150501298      0.019591169141      0.000000000000
   29       0.042406326554      0.005509893512      0.091670328929
   30       0.042406326554      0.005509893512     -0.091670328929
   31      -0.042406326554     -0.005509893512      0.091670328929
   32      -0.042406326554     -0.005509893512     -0.091670328929
   33       0.042292369956     -0.021556358952     -0.000000000000
   34       0.015105732856     -0.005221220575     -0.000000000000
   35      -0.042292369956      0.021556358952      0.000000000000
   36      -0.015105732856      0.005221220575      0.000000000000

 cartesian coordinates (angstrom) at end:
    1      3.97949998263324     0.00000000000000     1.59199999309215
    2      3.97949998263324     0.00000000000000     4.77599997927645
    3     -0.00000000000000     3.97949998263324     0.00390434170603
    4     -0.00000000000000     3.97949998263324     3.18009564447827
    5      1.00325120958536     6.56060480234306     1.59199999309215
    6      1.01697140410238     6.56919421320627     4.77599997927645
    7      6.95574875568113     1.39839516292343     1.59199999309215
    8      6.94202856116410     1.38980575206021     4.77599997927645
    9      1.39598775326633     1.00971090427977     0.00541838530382
   10      1.39598775326633     1.00971090427977     3.17858160088048
   11      6.56301221200015     6.94928906098672     0.00541838530382
   12      6.56301221200015     6.94928906098672     3.17858160088048
   13      2.80188604612631     5.43529970579985     0.01202713201821
   14      2.80188604612631     5.43529970579985     3.17197285416609
   15      5.15711391914017     2.52370025946663     0.01202713201821
   16      5.15711391914017     2.52370025946663     3.17197285416609
   17      2.52311137067150     2.78649017091970     1.59199999309215
   18      2.53897818587531     2.77105870624885     4.77599997927645
   19      5.43588859459498     5.17250979434678     1.59199999309215
   20      5.42002177939117     5.18794125901764     4.77599997927645
   21      4.64475747087162     5.85967499269085     0.01686246456363
   22      4.64475747087162     5.85967499269085     3.16713752162067
   23      3.31424249439486     2.09932497257563     0.01686246456363
   24      3.31424249439486     2.09932497257563     3.16713752162067
   25      2.13215376535796     4.63427654795366     1.59199999309215
   26      2.16909258094696     4.63850489323331     4.77599997927645
   27      5.82684619990852     3.32472341731282     1.59199999309215
   28      5.78990738431952     3.32049507203318     4.77599997927645
   29      2.02689931449570     7.06559791095864     0.04281320432303
   30      2.02689931449570     7.06559791095864     3.14118678186127
   31      5.93210065077078     0.89340205430784     0.04281320432303
   32      5.93210065077078     0.89340205430784     3.14118678186127
   33      0.89575502918058     2.00959960988600     1.59199999309215
   34      0.89660951776355     2.00569384247699     4.77599997927645
   35      7.06324493608591     5.94940035538049     1.59199999309215
   36      7.06239044750294     5.95330612278949     4.77599997927645

 cartesian forces (hartree/bohr) at end:
    1      0.00000000000000    -0.00000000000000    -0.00000000000000
    2      0.00000000000000    -0.00000000000000    -0.00000000000000
    3      0.00000000000000    -0.00000000000000    -0.00110233658353
    4      0.00000000000000    -0.00000000000000     0.00110233658353
    5     -0.00000642666777     0.00054258730179    -0.00000000000000
    6      0.00005928338873     0.00006227338237    -0.00000000000000
    7      0.00000642666777    -0.00054258730179    -0.00000000000000
    8     -0.00005928338873    -0.00006227338237    -0.00000000000000
    9      0.00019979397875    -0.00098675320299     0.00105295346573
   10      0.00019979397875    -0.00098675320299    -0.00105295346573
   11     -0.00019979397875     0.00098675320299     0.00105295346573
   12     -0.00019979397875     0.00098675320299    -0.00105295346573
   13      0.00009919304191    -0.00004436159238    -0.00050022920331
   14      0.00009919304191    -0.00004436159238     0.00050022920331
   15     -0.00009919304191     0.00004436159238    -0.00050022920331
   16     -0.00009919304191     0.00004436159238     0.00050022920331
   17      0.00037471953779    -0.00185725689047    -0.00000000000000
   18      0.00001043696111     0.00395015412895    -0.00000000000000
   19     -0.00037471953779     0.00185725689047    -0.00000000000000
   20     -0.00001043696111    -0.00395015412895    -0.00000000000000
   21      0.00125680364698    -0.00678180818903    -0.00586754517773
   22      0.00125680364698    -0.00678180818903     0.00586754517773
   23     -0.00125680364698     0.00678180818903    -0.00586754517773
   24     -0.00125680364698     0.00678180818903     0.00586754517773
   25      0.00227258729609    -0.00027668283176    -0.00000000000000
   26      0.00120678874901     0.00130257573118    -0.00000000000000
   27     -0.00227258729609     0.00027668283176    -0.00000000000000
   28     -0.00120678874901    -0.00130257573118    -0.00000000000000
   29     -0.00281950767813    -0.00036634125909    -0.00761775266706
   30     -0.00281950767813    -0.00036634125909     0.00761775266706
   31      0.00281950767813     0.00036634125909    -0.00761775266706
   32      0.00281950767813     0.00036634125909     0.00761775266706
   33     -0.00281193094302     0.00143323707845     0.00000000000000
   34     -0.00100434848363     0.00034714800114     0.00000000000000
   35      0.00281193094302    -0.00143323707845    -0.00000000000000
   36      0.00100434848363    -0.00034714800114    -0.00000000000000
 frms,max,avg= 2.5136406E-03 7.6177527E-03   0.000E+00  0.000E+00  0.000E+00 h/b

 cartesian forces (eV/Angstrom) at end:
    1      0.00000000000000    -0.00000000000000    -0.00000000000000
    2      0.00000000000000    -0.00000000000000    -0.00000000000000
    3      0.00000000000000    -0.00000000000000    -0.05668442145763
    4      0.00000000000000    -0.00000000000000     0.05668442145763
    5     -0.00033047251595     0.02790095851985    -0.00000000000000
    6      0.00304847416150     0.00320222580322    -0.00000000000000
    7      0.00033047251595    -0.02790095851985    -0.00000000000000
    8     -0.00304847416150    -0.00320222580322    -0.00000000000000
    9      0.01027381860084    -0.05074088555913     0.05414503965303
   10      0.01027381860084    -0.05074088555913    -0.05414503965303
   11     -0.01027381860084     0.05074088555913     0.05414503965303
   12     -0.01027381860084     0.05074088555913    -0.05414503965303
   13      0.00510071086930    -0.00228116460643    -0.02572281770298
   14      0.00510071086930    -0.00228116460643     0.02572281770298
   15     -0.00510071086930     0.00228116460643    -0.02572281770298
   16     -0.00510071086930     0.00228116460643     0.02572281770298
   17      0.01926885175185    -0.09550398118603    -0.00000000000000
   18      0.00053669007353     0.20312507523783    -0.00000000000000
   19     -0.01926885175185     0.09550398118603    -0.00000000000000
   20     -0.00053669007353    -0.20312507523783    -0.00000000000000
   21      0.06462743655529    -0.34873456925381    -0.30172127891267
   22      0.06462743655529    -0.34873456925381     0.30172127891267
   23     -0.06462743655529     0.34873456925381    -0.30172127891267
   24     -0.06462743655529     0.34873456925381     0.30172127891267
   25      0.11686112754916    -0.01422760205882    -0.00000000000000
   26      0.06205556731118     0.06698113156164    -0.00000000000000
   27     -0.11686112754916     0.01422760205882    -0.00000000000000
   28     -0.06205556731118    -0.06698113156164    -0.00000000000000
   29     -0.14498490199561    -0.01883802337490    -0.39172055902839
   30     -0.14498490199561    -0.01883802337490     0.39172055902839
   31      0.14498490199561     0.01883802337490    -0.39172055902839
   32      0.14498490199561     0.01883802337490     0.39172055902839
   33     -0.14459529064390     0.07370000761727     0.00000000000000
   34     -0.05164567119240     0.01785106645189     0.00000000000000
   35      0.14459529064390    -0.07370000761727    -0.00000000000000
   36      0.05164567119240    -0.01785106645189    -0.00000000000000
 frms,max,avg= 1.2925659E-01 3.9172056E-01   0.000E+00  0.000E+00  0.000E+00 e/A
 length scales=  1.000000000000  1.000000000000  1.000000000000 bohr
              =  0.529177208590  0.529177208590  0.529177208590 angstroms
 prteigrs : about to open file outdata/out_EIG
 Fermi (or HOMO) energy (hartree) =   0.23060   Average Vxc (hartree)=  -0.38912
 Eigenvalues (hartree) for nkpt=   1  k points, SPIN UP:
 kpt#   1, nband=115, wtk=  1.00000, kpt=  0.0000  0.0000  0.0000 (reduced coord)
  -1.39917   -1.39886   -1.39242   -1.39205   -1.39203   -1.39188   -1.38950   -1.38926
  -1.22063   -1.05298   -1.04767   -1.04668   -0.48642   -0.48604   -0.47346   -0.46736
  -0.46139   -0.45951   -0.45614   -0.45236   -0.45173   -0.43272   -0.42994   -0.41263
  -0.40957   -0.40159   -0.39329   -0.38951   -0.38362   -0.38139   -0.37777   -0.37071
  -0.35218   -0.31066   -0.30933   -0.30920   -0.30838   -0.30705   -0.30344   -0.30337
  -0.02519   -0.01663   -0.01543   -0.01076   -0.01016    0.01808    0.01831    0.02652
   0.02712    0.02859    0.03818    0.04504    0.04651    0.05485    0.06495    0.06783
   0.06875    0.07060    0.07229    0.07812    0.07828    0.08896    0.08977    0.09611
   0.10043    0.10076    0.10448    0.10580    0.11463    0.11646    0.11820    0.12026
   0.12097    0.12186    0.12355    0.12622    0.13362    0.13415    0.13700    0.13762
   0.13881    0.13915    0.14020    0.14044    0.15284    0.16070    0.16163    0.16507
   0.22354    0.22362    0.22439    0.22486    0.22500    0.22575    0.23060    0.28178
   0.29043    0.29697    0.31854    0.32954    0.33632    0.37364    0.38226    0.38449
   0.38689    0.38860    0.39149    0.39680    0.39831    0.40802    0.41103    0.41140
   0.41956    0.42051    0.42721
 Eigenvalues (hartree) for nkpt=   1  k points, SPIN DOWN:
 kpt#   1, nband=115, wtk=  1.00000, kpt=  0.0000  0.0000  0.0000 (reduced coord)
  -1.39919   -1.39888   -1.39240   -1.39204   -1.39202   -1.39186   -1.38950   -1.38925
  -1.11369   -1.05295   -1.04749   -1.04666   -0.47267   -0.47242   -0.46735   -0.46667
  -0.45952   -0.45622   -0.45277   -0.45201   -0.41306   -0.41024   -0.40955   -0.40346
  -0.39325   -0.38946   -0.38515   -0.38192   -0.37738   -0.37068   -0.36047   -0.35526
  -0.35219   -0.30929   -0.30921   -0.30855   -0.30704   -0.30338   -0.30338   -0.30135
  -0.02488   -0.01589   -0.01519   -0.01005   -0.00936    0.01850    0.01880    0.02716
   0.02770    0.02886    0.03842    0.04566    0.04750    0.05595    0.06589    0.06810
   0.06923    0.07164    0.07331    0.07838    0.07885    0.08960    0.09072    0.09657
   0.10062    0.10329    0.10462    0.10594    0.11483    0.11659    0.11833    0.12158
   0.12176    0.12257    0.12478    0.12705    0.13408    0.13433    0.13799    0.13897
   0.13930    0.14016    0.14027    0.14110    0.15421    0.16183    0.16327    0.16565
   0.28915    0.29164    0.30024    0.32421    0.33525    0.33632    0.37746    0.38605
   0.38748    0.38816    0.39035    0.39554    0.39650    0.39918    0.41064    0.41424
   0.41615    0.42075    0.42092    0.42442    0.42640    0.43108    0.43163    0.45042
   0.45741    0.46374    0.47144

--- !EnergyTerms
iteration_state     : {dtset: 1, }
comment             : Components of total free energy in Hartree
kinetic             :  1.68458647030648E+02
hartree             :  1.14484243408249E+02
xc                  : -8.61718994203638E+01
Ewald energy        : -3.47284119232497E+02
psp_core            :  1.49222053156366E+01
local_psp           : -3.29579402829655E+02
spherical_terms     : -1.03076950294294E+01
total_energy        : -4.75478020757411E+02
total_energy_eV     : -1.29384149398230E+04
...


--- !EnergyTermsDC
iteration_state     : {dtset: 1, }
comment             : '"Double-counting" decomposition of free energy'
band_energy         : -4.30018114827824E+01
Ewald energy        : -3.47284119232497E+02
psp_core            :  1.49222053156366E+01
xc_dc               : -9.92414439518707E+01
spherical_terms     : -8.73891825890199E-01
total_energy_dc     : -4.75479061177403E+02
total_energy_dc_eV  : -1.29384432510907E+04
...


 Cartesian components of stress tensor (hartree/bohr^3)
  sigma(1 1)=  2.64505184E-03  sigma(3 2)=  0.00000000E+00
  sigma(2 2)=  2.65065982E-03  sigma(3 1)=  0.00000000E+00
  sigma(3 3)=  2.45649681E-03  sigma(2 1)=  2.08424937E-06

-Cartesian components of stress tensor (GPa)         [Pressure= -7.6026E+01 GPa]
- sigma(1 1)=  7.78200988E+01  sigma(3 2)=  0.00000000E+00
- sigma(2 2)=  7.79850911E+01  sigma(3 1)=  0.00000000E+00
- sigma(3 3)=  7.22726191E+01  sigma(2 1)=  6.13207232E-02

== END DATASET(S) ==============================================================
================================================================================
  
 -outvars: echo values of variables after computation  --------
-          iomode           1
            acell      1.0000000000E+00  1.0000000000E+00  1.0000000000E+00 Bohr
              amu      1.51965000E+02  8.76200000E+01  6.94100000E+00
                       2.69815390E+01  1.40067400E+01  1.59994000E+01
          chkprim           0
      chksymbreak           0
     densfor_pred           6
           diemac      5.00000000E+00
             ecut      1.00000000E+01 Hartree
           etotal     -4.7547906118E+02
            fcart      3.6140072416E-20 -2.1081708909E-20 -0.0000000000E+00
                       3.6140072416E-20 -2.1081708909E-20 -0.0000000000E+00
                       3.6140072416E-20 -2.1081709017E-20 -1.1023365835E-03
                       3.6140072416E-20 -2.1081708802E-20  1.1023365835E-03
                      -6.4266677654E-06  5.4258730179E-04 -0.0000000000E+00
                       5.9283388730E-05  6.2273382366E-05 -0.0000000000E+00
                       6.4266677654E-06 -5.4258730179E-04 -0.0000000000E+00
                      -5.9283388730E-05 -6.2273382366E-05 -0.0000000000E+00
                       1.9979397875E-04 -9.8675320299E-04  1.0529534657E-03
                       1.9979397875E-04 -9.8675320299E-04 -1.0529534657E-03
                      -1.9979397875E-04  9.8675320299E-04  1.0529534657E-03
                      -1.9979397875E-04  9.8675320299E-04 -1.0529534657E-03
                       9.9193041910E-05 -4.4361592375E-05 -5.0022920331E-04
                       9.9193041910E-05 -4.4361592375E-05  5.0022920331E-04
                      -9.9193041910E-05  4.4361592375E-05 -5.0022920331E-04
                      -9.9193041910E-05  4.4361592375E-05  5.0022920331E-04
                       3.7471953779E-04 -1.8572568905E-03 -0.0000000000E+00
                       1.0436961106E-05  3.9501541289E-03 -0.0000000000E+00
                      -3.7471953779E-04  1.8572568905E-03 -0.0000000000E+00
                      -1.0436961106E-05 -3.9501541289E-03 -0.0000000000E+00
                       1.2568036470E-03 -6.7818081890E-03 -5.8675451777E-03
                       1.2568036470E-03 -6.7818081890E-03  5.8675451777E-03
                      -1.2568036470E-03  6.7818081890E-03 -5.8675451777E-03
                      -1.2568036470E-03  6.7818081890E-03  5.8675451777E-03
                       2.2725872961E-03 -2.7668283176E-04 -0.0000000000E+00
                       1.2067887490E-03  1.3025757312E-03 -0.0000000000E+00
                      -2.2725872961E-03  2.7668283176E-04 -0.0000000000E+00
                      -1.2067887490E-03 -1.3025757312E-03 -0.0000000000E+00
                      -2.8195076781E-03 -3.6634125909E-04 -7.6177526671E-03
                      -2.8195076781E-03 -3.6634125909E-04  7.6177526671E-03
                       2.8195076781E-03  3.6634125909E-04 -7.6177526671E-03
                       2.8195076781E-03  3.6634125909E-04  7.6177526671E-03
                      -2.8119309430E-03  1.4332370784E-03  6.7127190127E-29
                      -1.0043484836E-03  3.4714800114E-04  1.3425438025E-28
                       2.8119309430E-03 -1.4332370784E-03 -6.7127190127E-29
                       1.0043484836E-03 -3.4714800114E-04 -1.3425438025E-28
-          fftalg         112
           irdden           1
           istwfk        2
              ixc       -1012
            jpawu      2.57245278E-02  0.00000000E+00  0.00000000E+00  0.00000000E+00  0.00000000E+00  0.00000000E+00 Hartree
         kptrlatt        1    0    0      0    1    0      0    0    1
          kptrlen      1.20337760E+01
            lpawu           3      -1      -1      -1      -1      -1
P           mkmem           1
            natom          36
            nband         115     115
            ngfft          45      45      36
          ngfftdg          64      64      50
             nkpt           1
-        np_spkpt           2
           nspden           2
           nsppol           2
            nstep         100
             nsym           4
           ntypat           6
              occ      1.000000  1.000000  1.000000  1.000000  1.000000  1.000000
                       1.000000  1.000000  1.000000  1.000000  1.000000  1.000000
                       1.000000  1.000000  1.000000  1.000000  1.000000  1.000000
                       1.000000  1.000000  1.000000  1.000000  1.000000  1.000000
                       1.000000  1.000000  1.000000  1.000000  1.000000  1.000000
                       1.000000  1.000000  1.000000  1.000000  1.000000  1.000000
                       1.000000  1.000000  1.000000  1.000000  1.000000  1.000000
                       1.000000  1.000000  1.000000  1.000000  1.000000  1.000000
                       1.000000  1.000000  1.000000  1.000000  1.000000  1.000000
                       1.000000  1.000000  1.000000  1.000000  1.000000  1.000000
                       1.000000  1.000000  1.000000  1.000000  1.000000  1.000000
                       1.000000  1.000000  1.000000  1.000000  1.000000  1.000000
                       1.000000  1.000000  1.000000  1.000000  1.000000  1.000000
                       1.000000  1.000000  1.000000  1.000000  1.000000  1.000000
                       1.000000  1.000000  1.000000  1.000000  1.000000  1.000000
                       1.000000  1.000000  1.000000  1.000000  1.000000  0.000000
                       0.000000  0.000000  0.000000  0.000000  0.000000  0.000000
                       0.000000  0.000000  0.000000  0.000000  0.000000  0.000000
                       0.000000  0.000000  0.000000  0.000000  0.000000  0.000000
                       0.000000
                       1.000000  1.000000  1.000000  1.000000  1.000000  1.000000
                       1.000000  1.000000  1.000000  1.000000  1.000000  1.000000
                       1.000000  1.000000  1.000000  1.000000  1.000000  1.000000
                       1.000000  1.000000  1.000000  1.000000  1.000000  1.000000
                       1.000000  1.000000  1.000000  1.000000  1.000000  1.000000
                       1.000000  1.000000  1.000000  1.000000  1.000000  1.000000
                       1.000000  1.000000  1.000000  1.000000  1.000000  1.000000
                       1.000000  1.000000  1.000000  1.000000  1.000000  1.000000
                       1.000000  1.000000  1.000000  1.000000  1.000000  1.000000
                       1.000000  1.000000  1.000000  1.000000  1.000000  1.000000
                       1.000000  1.000000  1.000000  1.000000  1.000000  1.000000
                       1.000000  1.000000  1.000000  1.000000  1.000000  1.000000
                       1.000000  1.000000  1.000000  1.000000  1.000000  1.000000
                       1.000000  1.000000  1.000000  1.000000  1.000000  1.000000
                       1.000000  1.000000  1.000000  1.000000  0.000000  0.000000
                       0.000000  0.000000  0.000000  0.000000  0.000000  0.000000
                       0.000000  0.000000  0.000000  0.000000  0.000000  0.000000
                       0.000000  0.000000  0.000000  0.000000  0.000000  0.000000
                       0.000000  0.000000  0.000000  0.000000  0.000000  0.000000
                       0.000000
           occopt           2
        paral_kgb           1
        pawecutdg      2.00000000E+01 Hartree
            prtwf          -1
            rprim      1.5040330226E+01  0.0000000000E+00  0.0000000000E+00
                       0.0000000000E+00  1.5040330226E+01  0.0000000000E+00
                       0.0000000000E+00  0.0000000000E+00  1.2033775962E+01
          spgroup          10
           spinat      0.0000000000E+00  0.0000000000E+00  7.0000000000E+00
                       0.0000000000E+00  0.0000000000E+00  0.0000000000E+00
                       0.0000000000E+00  0.0000000000E+00  0.0000000000E+00
                       0.0000000000E+00  0.0000000000E+00  0.0000000000E+00
                       0.0000000000E+00  0.0000000000E+00  0.0000000000E+00
                       0.0000000000E+00  0.0000000000E+00  0.0000000000E+00
                       0.0000000000E+00  0.0000000000E+00  0.0000000000E+00
                       0.0000000000E+00  0.0000000000E+00  0.0000000000E+00
                       0.0000000000E+00  0.0000000000E+00  0.0000000000E+00
                       0.0000000000E+00  0.0000000000E+00  0.0000000000E+00
                       0.0000000000E+00  0.0000000000E+00  0.0000000000E+00
                       0.0000000000E+00  0.0000000000E+00  0.0000000000E+00
                       0.0000000000E+00  0.0000000000E+00  0.0000000000E+00
                       0.0000000000E+00  0.0000000000E+00  0.0000000000E+00
                       0.0000000000E+00  0.0000000000E+00  0.0000000000E+00
                       0.0000000000E+00  0.0000000000E+00  0.0000000000E+00
                       0.0000000000E+00  0.0000000000E+00  0.0000000000E+00
                       0.0000000000E+00  0.0000000000E+00  0.0000000000E+00
                       0.0000000000E+00  0.0000000000E+00  0.0000000000E+00
                       0.0000000000E+00  0.0000000000E+00  0.0000000000E+00
                       0.0000000000E+00  0.0000000000E+00  0.0000000000E+00
                       0.0000000000E+00  0.0000000000E+00  0.0000000000E+00
                       0.0000000000E+00  0.0000000000E+00  0.0000000000E+00
                       0.0000000000E+00  0.0000000000E+00  0.0000000000E+00
                       0.0000000000E+00  0.0000000000E+00  0.0000000000E+00
                       0.0000000000E+00  0.0000000000E+00  0.0000000000E+00
                       0.0000000000E+00  0.0000000000E+00  0.0000000000E+00
                       0.0000000000E+00  0.0000000000E+00  0.0000000000E+00
                       0.0000000000E+00  0.0000000000E+00  0.0000000000E+00
                       0.0000000000E+00  0.0000000000E+00  0.0000000000E+00
                       0.0000000000E+00  0.0000000000E+00  0.0000000000E+00
                       0.0000000000E+00  0.0000000000E+00  0.0000000000E+00
                       0.0000000000E+00  0.0000000000E+00  0.0000000000E+00
                       0.0000000000E+00  0.0000000000E+00  0.0000000000E+00
                       0.0000000000E+00  0.0000000000E+00  0.0000000000E+00
                       0.0000000000E+00  0.0000000000E+00  0.0000000000E+00
           strten      2.6450518410E-03  2.6506598171E-03  2.4564968061E-03
                       0.0000000000E+00  0.0000000000E+00  2.0842493681E-06
           symrel      1  0  0   0  1  0   0  0  1      -1  0  0   0 -1  0   0  0 -1
                      -1  0  0   0 -1  0   0  0  1       1  0  0   0  1  0   0  0 -1
            tnons      0.0000000  0.0000000  0.0000000    -0.0000000  0.0000000  0.5000000
                      -0.0000000  0.0000000  0.0000000     0.0000000  0.0000000  0.5000000
           toldfe      1.00000000E-06 Hartree
            typat      1  2  2  2  3  3  3  3  3  3  3  3  4  4  4  4  4  4  4  4
                       5  5  5  5  5  5  5  5  6  6  6  6  6  6  6  6
            upawu      2.57245278E-01  0.00000000E+00  0.00000000E+00  0.00000000E+00  0.00000000E+00  0.00000000E+00 Hartree
          usepawu           1
           useylm           1
         wfoptalg         114
           xangst      3.9794999826E+00  0.0000000000E+00  1.5919999931E+00
                       3.9794999826E+00  0.0000000000E+00  4.7759999793E+00
                      -4.4181325072E-16  3.9794999826E+00  3.9043417060E-03
                      -4.4181325072E-16  3.9794999826E+00  3.1800956445E+00
                       1.0032512096E+00  6.5606048023E+00  1.5919999931E+00
                       1.0169714041E+00  6.5691942132E+00  4.7759999793E+00
                       6.9557487557E+00  1.3983951629E+00  1.5919999931E+00
                       6.9420285612E+00  1.3898057521E+00  4.7759999793E+00
                       1.3959877533E+00  1.0097109043E+00  5.4183853038E-03
                       1.3959877533E+00  1.0097109043E+00  3.1785816009E+00
                       6.5630122120E+00  6.9492890610E+00  5.4183853038E-03
                       6.5630122120E+00  6.9492890610E+00  3.1785816009E+00
                       2.8018860461E+00  5.4352997058E+00  1.2027132018E-02
                       2.8018860461E+00  5.4352997058E+00  3.1719728542E+00
                       5.1571139191E+00  2.5237002595E+00  1.2027132018E-02
                       5.1571139191E+00  2.5237002595E+00  3.1719728542E+00
                       2.5231113707E+00  2.7864901709E+00  1.5919999931E+00
                       2.5389781859E+00  2.7710587062E+00  4.7759999793E+00
                       5.4358885946E+00  5.1725097943E+00  1.5919999931E+00
                       5.4200217794E+00  5.1879412590E+00  4.7759999793E+00
                       4.6447574709E+00  5.8596749927E+00  1.6862464564E-02
                       4.6447574709E+00  5.8596749927E+00  3.1671375216E+00
                       3.3142424944E+00  2.0993249726E+00  1.6862464564E-02
                       3.3142424944E+00  2.0993249726E+00  3.1671375216E+00
                       2.1321537654E+00  4.6342765480E+00  1.5919999931E+00
                       2.1690925809E+00  4.6385048932E+00  4.7759999793E+00
                       5.8268461999E+00  3.3247234173E+00  1.5919999931E+00
                       5.7899073843E+00  3.3204950720E+00  4.7759999793E+00
                       2.0268993145E+00  7.0655979110E+00  4.2813204323E-02
                       2.0268993145E+00  7.0655979110E+00  3.1411867819E+00
                       5.9321006508E+00  8.9340205431E-01  4.2813204323E-02
                       5.9321006508E+00  8.9340205431E-01  3.1411867819E+00
                       8.9575502918E-01  2.0095996099E+00  1.5919999931E+00
                       8.9660951776E-01  2.0056938425E+00  4.7759999793E+00
                       7.0632449361E+00  5.9494003554E+00  1.5919999931E+00
                       7.0623904475E+00  5.9533061228E+00  4.7759999793E+00
            xcart      7.5201651130E+00  0.0000000000E+00  3.0084439905E+00
                       7.5201651130E+00  0.0000000000E+00  9.0253319715E+00
                      -8.3490604574E-16  7.5201651130E+00  7.3781365536E-03
                      -8.3490604574E-16  7.5201651130E+00  6.0095098444E+00
                       1.8958700286E+00  1.2397746343E+01  3.0084439905E+00
                       1.9217974387E+00  1.2413977977E+01  9.0253319715E+00
                       1.3144460197E+01  2.6425838835E+00  3.0084439905E+00
                       1.3118532787E+01  2.6263522493E+00  9.0253319715E+00
                       2.6380345385E+00  1.9080770825E+00  1.0239264307E-02
                       2.6380345385E+00  1.9080770825E+00  6.0066487167E+00
                       1.2402295687E+01  1.3132253144E+01  1.0239264307E-02
                       1.2402295687E+01  1.3132253144E+01  6.0066487167E+00
                       5.2947972827E+00  1.0271227894E+01  2.2727985678E-02
                       5.2947972827E+00  1.0271227894E+01  5.9941599953E+00
                       9.7455329433E+00  4.7691023319E+00  2.2727985678E-02
                       9.7455329433E+00  4.7691023319E+00  5.9941599953E+00
                       4.7679894933E+00  5.2657032950E+00  3.0084439905E+00
                       4.7979734287E+00  5.2365420530E+00  9.0253319715E+00
                       1.0272340733E+01  9.7746269310E+00  3.0084439905E+00
                       1.0242356797E+01  9.8037881730E+00  9.0253319715E+00
                       8.7773195736E+00  1.1073180964E+01  3.1865439951E-02
                       8.7773195736E+00  1.1073180964E+01  5.9850225410E+00
                       6.2630106524E+00  3.9671492621E+00  3.1865439951E-02
                       6.2630106524E+00  3.9671492621E+00  5.9850225410E+00
                       4.0291866897E+00  8.7575134997E+00  3.0084439905E+00
                       4.0989909349E+00  8.7655039143E+00  9.0253319715E+00
                       1.1011143536E+01  6.2828167263E+00  3.0084439905E+00
                       1.0941339291E+01  6.2748263117E+00  9.0253319715E+00
                       3.8302846033E+00  1.3352045017E+01  8.0905231042E-02
                       3.8302846033E+00  1.3352045017E+01  5.9359827500E+00
                       1.1210045623E+01  1.6882852092E+00  8.0905231042E-02
                       1.1210045623E+01  1.6882852092E+00  5.9359827500E+00
                       1.6927316873E+00  3.7975928994E+00  3.0084439905E+00
                       1.6943464367E+00  3.7902120687E+00  9.0253319715E+00
                       1.3347598539E+01  1.1242737327E+01  3.0084439905E+00
                       1.3345983789E+01  1.1250118157E+01  9.0253319715E+00
             xred      5.0000000000E-01  0.0000000000E+00  2.5000000000E-01
                       5.0000000000E-01  0.0000000000E+00  7.5000000000E-01
                      -5.5511151231E-17  5.0000000000E-01  6.1311898916E-04
                      -5.5511151231E-17  5.0000000000E-01  4.9938688101E-01
                       1.2605242040E-01  8.2430014210E-01  2.5000000000E-01
                       1.2777627950E-01  8.2537934940E-01  7.5000000000E-01
                       8.7394757960E-01  1.7569985790E-01  2.5000000000E-01
                       8.7222372050E-01  1.7462065060E-01  7.5000000000E-01
                       1.7539738150E-01  1.2686404180E-01  8.5087709286E-04
                       1.7539738150E-01  1.2686404180E-01  4.9914912291E-01
                       8.2460261850E-01  8.7313595820E-01  8.5087709286E-04
                       8.2460261850E-01  8.7313595820E-01  4.9914912291E-01
                       3.5203996210E-01  6.8291239220E-01  1.8886828000E-03
                       3.5203996210E-01  6.8291239220E-01  4.9811131720E-01
                       6.4796003790E-01  3.1708760780E-01  1.8886828000E-03
                       6.4796003790E-01  3.1708760780E-01  4.9811131720E-01
                       3.1701361750E-01  3.5010556390E-01  2.5000000000E-01
                       3.1900718645E-01  3.4816669410E-01  7.5000000000E-01
                       6.8298638250E-01  6.4989443610E-01  2.5000000000E-01
                       6.8099281355E-01  6.5183330590E-01  7.5000000000E-01
                       5.8358556240E-01  7.3623256920E-01  2.6480001000E-03
                       5.8358556240E-01  7.3623256920E-01  4.9735199990E-01
                       4.1641443760E-01  2.6376743080E-01  2.6480001000E-03
                       4.1641443760E-01  2.6376743080E-01  4.9735199990E-01
                       2.6789216920E-01  5.8226869810E-01  2.5000000000E-01
                       2.7253330700E-01  5.8279996400E-01  7.5000000000E-01
                       7.3210783080E-01  4.1773130190E-01  2.5000000000E-01
                       7.2746669300E-01  4.1720003600E-01  7.5000000000E-01
                       2.5466758680E-01  8.8774945870E-01  6.7231791000E-03
                       2.5466758680E-01  8.8774945870E-01  4.9327682090E-01
                       7.4533241320E-01  1.1225054130E-01  6.7231791000E-03
                       7.4533241320E-01  1.1225054130E-01  4.9327682090E-01
                       1.1254617830E-01  2.5249398400E-01  2.5000000000E-01
                       1.1265353960E-01  2.5200324805E-01  7.5000000000E-01
                       8.8745382170E-01  7.4750601600E-01  2.5000000000E-01
                       8.8734646040E-01  7.4799675195E-01  7.5000000000E-01
            znucl       63.00000   38.00000    3.00000   13.00000    7.00000    8.00000

================================================================================


- Timing analysis has been suppressed with timopt=0



================================================================================

 Suggested references for the acknowledgment of ABINIT usage.

 The users of ABINIT have little formal obligations with respect to the ABINIT group
 (those specified in the GNU General Public License, http://www.gnu.org/copyleft/gpl.txt).
 However, it is common practice in the scientific literature,
 to acknowledge the efforts of people that have made the research possible.
 In this spirit, please find below suggested citations of work written by ABINIT developers,
 corresponding to implementations inside of ABINIT that you have used in the present run.
 Note also that it will be of great value to readers of publications presenting these results,
 to read papers enabling them to understand the theoretical formalism and details
 of the ABINIT implementation.
 For information on why they are suggested, see also https://docs.abinit.org/theory/acknowledgments.
-
- [1] Gamma and beta cerium: DFT+U calculations of ground-state parameters.
- B. Amadon, F. Jollet and M. Torrent, Phys. Rev. B 77, 155104 (2008).
- Comment: DFT+U calculations, usepawu/=0. Strong suggestion to cite this paper.
- DOI and bibtex: see https://docs.abinit.org/theory/bibliography/#amadon2008a
-
- [2] Implementation of the Projector Augmented-Wave Method in the ABINIT code.
- M. Torrent, F. Jollet, F. Bottin, G. Zerah, and X. Gonze Comput. Mat. Science 42, 337, (2008).
- Comment: PAW calculations. Strong suggestion to cite this paper.
- DOI and bibtex: see https://docs.abinit.org/theory/bibliography/#torrent2008
-
- [3] Libxc: A library of exchange and correlation functionals for density functional theory.
- M.A.L. Marques, M.J.T. Oliveira, T. Burnus, Computer Physics Communications 183, 2227 (2012).
- Comment: to be cited when LibXC is used (negative value of ixc)
- Strong suggestion to cite this paper.
- DOI and bibtex: see https://docs.abinit.org/theory/bibliography/#marques2012
-
- [4] Large scale ab initio calculations based on three levels of parallelization
- F. Bottin, S. Leroux, A. Knyazev, G. Zerah, Comput. Mat. Science 42, 329, (2008).
- Comment: in case LOBPCG algorithm is used (wfoptalg=4/14/114).
- Strong suggestion to cite this paper in your publications.
- This paper is also available at http://www.arxiv.org/abs/0707.3405
- DOI and bibtex: see https://docs.abinit.org/theory/bibliography/#bottin2008
-
- [5] The Abinit project: Impact, environment and recent developments.
- Computer Phys. Comm. 248, 107042 (2020).
- X.Gonze, B. Amadon, G. Antonius, F.Arnardi, L.Baguet, J.-M.Beuken,
- J.Bieder, F.Bottin, J.Bouchet, E.Bousquet, N.Brouwer, F.Bruneval,
- G.Brunin, T.Cavignac, J.-B. Charraud, Wei Chen, M.Cote, S.Cottenier,
- J.Denier, G.Geneste, Ph.Ghosez, M.Giantomassi, Y.Gillet, O.Gingras,
- D.R.Hamann, G.Hautier, Xu He, N.Helbig, N.Holzwarth, Y.Jia, F.Jollet,
- W.Lafargue-Dit-Hauret, K.Lejaeghere, M.A.L.Marques, A.Martin, C.Martins,
- H.P.C. Miranda, F.Naccarato, K. Persson, G.Petretto, V.Planes, Y.Pouillon,
- S.Prokhorenko, F.Ricci, G.-M.Rignanese, A.H.Romero, M.M.Schmitt, M.Torrent,
- M.J.van Setten, B.Van Troeye, M.J.Verstraete, G.Zerah and J.W.Zwanzig
- Comment: the fifth generic paper describing the ABINIT project.
- Note that a version of this paper, that is not formatted for Computer Phys. Comm. 
- is available at https://www.abinit.org/sites/default/files/ABINIT20.pdf .
- The licence allows the authors to put it on the Web.
- DOI and bibtex: see https://docs.abinit.org/theory/bibliography/#gonze2020
-
- [6] ABINIT: Overview, and focus on selected capabilities
- J. Chem. Phys. 152, 124102 (2020).
- A. Romero, D.C. Allan, B. Amadon, G. Antonius, T. Applencourt, L.Baguet,
- J.Bieder, F.Bottin, J.Bouchet, E.Bousquet, F.Bruneval,
- G.Brunin, D.Caliste, M.Cote,
- J.Denier, C. Dreyer, Ph.Ghosez, M.Giantomassi, Y.Gillet, O.Gingras,
- D.R.Hamann, G.Hautier, F.Jollet, G. Jomard,
- A.Martin, 
- H.P.C. Miranda, F.Naccarato, G.Petretto, N.A. Pike, V.Planes,
- S.Prokhorenko, T. Rangel, F.Ricci, G.-M.Rignanese, M.Royo, M.Stengel, M.Torrent,
- M.J.van Setten, B.Van Troeye, M.J.Verstraete, J.Wiktor, J.W.Zwanziger, and X.Gonze.
- Comment: a global overview of ABINIT, with focus on selected capabilities .
- Note that a version of this paper, that is not formatted for J. Chem. Phys 
- is available at https://www.abinit.org/sites/default/files/ABINIT20_JPC.pdf .
- The licence allows the authors to put it on the Web.
- DOI and bibtex: see https://docs.abinit.org/theory/bibliography/#romero2020
-
- [7] Recent developments in the ABINIT software package.
- Computer Phys. Comm. 205, 106 (2016).
- X.Gonze, F.Jollet, F.Abreu Araujo, D.Adams, B.Amadon, T.Applencourt,
- C.Audouze, J.-M.Beuken, J.Bieder, A.Bokhanchuk, E.Bousquet, F.Bruneval
- D.Caliste, M.Cote, F.Dahm, F.Da Pieve, M.Delaveau, M.Di Gennaro,
- B.Dorado, C.Espejo, G.Geneste, L.Genovese, A.Gerossier, M.Giantomassi,
- Y.Gillet, D.R.Hamann, L.He, G.Jomard, J.Laflamme Janssen, S.Le Roux,
- A.Levitt, A.Lherbier, F.Liu, I.Lukacevic, A.Martin, C.Martins,
- M.J.T.Oliveira, S.Ponce, Y.Pouillon, T.Rangel, G.-M.Rignanese,
- A.H.Romero, B.Rousseau, O.Rubel, A.A.Shukri, M.Stankovski, M.Torrent,
- M.J.Van Setten, B.Van Troeye, M.J.Verstraete, D.Waroquier, J.Wiktor,
- B.Xu, A.Zhou, J.W.Zwanziger.
- Comment: the fourth generic paper describing the ABINIT project.
- Note that a version of this paper, that is not formatted for Computer Phys. Comm. 
- is available at https://www.abinit.org/sites/default/files/ABINIT16.pdf .
- The licence allows the authors to put it on the Web.
- DOI and bibtex: see https://docs.abinit.org/theory/bibliography/#gonze2016
-
- Proc.   0 individual time (sec): cpu=         61.2  wall=         69.1

================================================================================

 Calculation completed.
.Delivered   0 WARNINGs and   0 COMMENTs to log file.
+Overall time at end (sec) : cpu=        122.4  wall=        138.1
