
.Version 9.6.2.38 of ABINIT 
.(MPI version, prepared for a aarch64_darwin21.6.0_gnu13.1 computer) 

.Copyright (C) 1998-2022 ABINIT group . 
 ABINIT comes with ABSOLUTELY NO WARRANTY.
 It is free software, and you are welcome to redistribute it
 under certain conditions (GNU General Public License,
 see ~abinit/COPYING or http://www.gnu.org/copyleft/gpl.txt).

 ABINIT is a project of the Universite Catholique de Louvain,
 Corning Inc. and other collaborators, see ~abinit/doc/developers/contributors.txt .
 Please read https://docs.abinit.org/theory/acknowledgments for suggested
 acknowledgments of the ABINIT effort.
 For more information, see https://www.abinit.org .

.Starting date : Mon 10 Jun 2024.
- ( at 13h54 )
  
- input  file    -> /Users/jbouquiaux/git/lumi_book/lumi_book/lumi/flow_deltaSCF/w0/t3/run.abi
- output file    -> /Users/jbouquiaux/git/lumi_book/lumi_book/lumi/flow_deltaSCF/w0/t3/run.abo
- root for input  files -> indata/in
- root for output files -> outdata/out

- inpspheads : Reading pseudopotential header in XML form from 
-   /Users/jbouquiaux/git/lumi_book/lumi_book/lumi/pseudos/Eu.xml
- inpspheads : Reading pseudopotential header in XML form from 
-   /Users/jbouquiaux/git/lumi_book/lumi_book/lumi/pseudos/Sr.xml
- inpspheads : Reading pseudopotential header in XML form from 
-   /Users/jbouquiaux/git/lumi_book/lumi_book/lumi/pseudos/Li.xml
- inpspheads : Reading pseudopotential header in XML form from 
-   /Users/jbouquiaux/git/lumi_book/lumi_book/lumi/pseudos/Al.xml
- inpspheads : Reading pseudopotential header in XML form from 
-   /Users/jbouquiaux/git/lumi_book/lumi_book/lumi/pseudos/N.xml
- inpspheads : Reading pseudopotential header in XML form from 
-   /Users/jbouquiaux/git/lumi_book/lumi_book/lumi/pseudos/O.xml
 Symmetries : space group P2/m (# 10); Bravais mP (primitive monocl.)
================================================================================
 Values of the parameters that define the memory need of the present run
     intxc =       0    ionmov =       0      iscf =      17    lmnmax =      32
     lnmax =       8     mgfft =      45  mpssoang =       4    mqgrid =    3028
     natom =      36  nloc_mem =       2    nspden =       2   nspinor =       1
    nsppol =       2      nsym =       4    n1xccc =       1    ntypat =       6
    occopt =       2   xclevel =       1
-    mband =         115        mffmem =           1         mkmem =           1
       mpw =        2071          nfft =       72900          nkpt =           1
Pmy_natom=        18
 PAW method is used; the additional fine FFT grid is defined by:
   mgfftf=        64    nfftf =    204800
================================================================================
P This job should need less than                     108.307 Mbytes of memory.
  Rough estimation (10% accuracy) of disk space for files :
_ WF disk file :      7.270 Mbytes ; DEN or POT disk file :      3.127 Mbytes.
================================================================================

--------------------------------------------------------------------------------
------------- Echo of variables that govern the present computation ------------
--------------------------------------------------------------------------------
-
- outvars: echo of selected default values                                      
-   iomode0 =  0 , fftalg0 =112 , wfoptalg0 = 10
-
- outvars: echo of global parameters not present in the input file              
-  max_nthreads =    0
-
 -outvars: echo values of preprocessed input variables --------
-          iomode           1
            acell      1.0000000000E+00  1.0000000000E+00  1.0000000000E+00 Bohr
              amu      1.51965000E+02  8.76200000E+01  6.94100000E+00
                       2.69815390E+01  1.40067400E+01  1.59994000E+01
          chkprim           0
      chksymbreak           0
     densfor_pred           6
           diemac      5.00000000E+00
             ecut      1.00000000E+01 Hartree
-          fftalg         112
           irdden           1
           istwfk        2
              ixc       -1012
            jpawu      2.57245278E-02  0.00000000E+00  0.00000000E+00  0.00000000E+00  0.00000000E+00  0.00000000E+00 Hartree
         kptrlatt        1    0    0      0    1    0      0    0    1
          kptrlen      1.20337760E+01
            lpawu           3      -1      -1      -1      -1      -1
P           mkmem           1
            natom          36
            nband         115     115
            ngfft          45      45      36
          ngfftdg          64      64      50
             nkpt           1
-        np_spkpt           2
           nspden           2
           nsppol           2
            nstep         100
             nsym           4
           ntypat           6
              occ      1.000000  1.000000  1.000000  1.000000  1.000000  1.000000
                       1.000000  1.000000  1.000000  1.000000  1.000000  1.000000
                       1.000000  1.000000  1.000000  1.000000  1.000000  1.000000
                       1.000000  1.000000  1.000000  1.000000  1.000000  1.000000
                       1.000000  1.000000  1.000000  1.000000  1.000000  1.000000
                       1.000000  1.000000  1.000000  1.000000  1.000000  1.000000
                       1.000000  1.000000  1.000000  1.000000  1.000000  1.000000
                       1.000000  1.000000  1.000000  1.000000  1.000000  1.000000
                       1.000000  1.000000  1.000000  1.000000  1.000000  1.000000
                       1.000000  1.000000  1.000000  1.000000  1.000000  1.000000
                       1.000000  1.000000  1.000000  1.000000  1.000000  1.000000
                       1.000000  1.000000  1.000000  1.000000  1.000000  1.000000
                       1.000000  1.000000  1.000000  1.000000  1.000000  1.000000
                       1.000000  1.000000  1.000000  1.000000  1.000000  1.000000
                       1.000000  1.000000  1.000000  1.000000  1.000000  1.000000
                       1.000000  1.000000  1.000000  1.000000  0.000000  1.000000
                       0.000000  0.000000  0.000000  0.000000  0.000000  0.000000
                       0.000000  0.000000  0.000000  0.000000  0.000000  0.000000
                       0.000000  0.000000  0.000000  0.000000  0.000000  0.000000
                       0.000000
                       1.000000  1.000000  1.000000  1.000000  1.000000  1.000000
                       1.000000  1.000000  1.000000  1.000000  1.000000  1.000000
                       1.000000  1.000000  1.000000  1.000000  1.000000  1.000000
                       1.000000  1.000000  1.000000  1.000000  1.000000  1.000000
                       1.000000  1.000000  1.000000  1.000000  1.000000  1.000000
                       1.000000  1.000000  1.000000  1.000000  1.000000  1.000000
                       1.000000  1.000000  1.000000  1.000000  1.000000  1.000000
                       1.000000  1.000000  1.000000  1.000000  1.000000  1.000000
                       1.000000  1.000000  1.000000  1.000000  1.000000  1.000000
                       1.000000  1.000000  1.000000  1.000000  1.000000  1.000000
                       1.000000  1.000000  1.000000  1.000000  1.000000  1.000000
                       1.000000  1.000000  1.000000  1.000000  1.000000  1.000000
                       1.000000  1.000000  1.000000  1.000000  1.000000  1.000000
                       1.000000  1.000000  1.000000  1.000000  1.000000  1.000000
                       1.000000  1.000000  1.000000  1.000000  0.000000  0.000000
                       0.000000  0.000000  0.000000  0.000000  0.000000  0.000000
                       0.000000  0.000000  0.000000  0.000000  0.000000  0.000000
                       0.000000  0.000000  0.000000  0.000000  0.000000  0.000000
                       0.000000  0.000000  0.000000  0.000000  0.000000  0.000000
                       0.000000
           occopt           2
        paral_kgb           1
        pawecutdg      2.00000000E+01 Hartree
            prtwf          -1
            rprim      1.5040330226E+01  0.0000000000E+00  0.0000000000E+00
                       0.0000000000E+00  1.5040330226E+01  0.0000000000E+00
                       0.0000000000E+00  0.0000000000E+00  1.2033775962E+01
          spgroup          10
           spinat      0.0000000000E+00  0.0000000000E+00  7.0000000000E+00
                       0.0000000000E+00  0.0000000000E+00  0.0000000000E+00
                       0.0000000000E+00  0.0000000000E+00  0.0000000000E+00
                       0.0000000000E+00  0.0000000000E+00  0.0000000000E+00
                       0.0000000000E+00  0.0000000000E+00  0.0000000000E+00
                       0.0000000000E+00  0.0000000000E+00  0.0000000000E+00
                       0.0000000000E+00  0.0000000000E+00  0.0000000000E+00
                       0.0000000000E+00  0.0000000000E+00  0.0000000000E+00
                       0.0000000000E+00  0.0000000000E+00  0.0000000000E+00
                       0.0000000000E+00  0.0000000000E+00  0.0000000000E+00
                       0.0000000000E+00  0.0000000000E+00  0.0000000000E+00
                       0.0000000000E+00  0.0000000000E+00  0.0000000000E+00
                       0.0000000000E+00  0.0000000000E+00  0.0000000000E+00
                       0.0000000000E+00  0.0000000000E+00  0.0000000000E+00
                       0.0000000000E+00  0.0000000000E+00  0.0000000000E+00
                       0.0000000000E+00  0.0000000000E+00  0.0000000000E+00
                       0.0000000000E+00  0.0000000000E+00  0.0000000000E+00
                       0.0000000000E+00  0.0000000000E+00  0.0000000000E+00
                       0.0000000000E+00  0.0000000000E+00  0.0000000000E+00
                       0.0000000000E+00  0.0000000000E+00  0.0000000000E+00
                       0.0000000000E+00  0.0000000000E+00  0.0000000000E+00
                       0.0000000000E+00  0.0000000000E+00  0.0000000000E+00
                       0.0000000000E+00  0.0000000000E+00  0.0000000000E+00
                       0.0000000000E+00  0.0000000000E+00  0.0000000000E+00
                       0.0000000000E+00  0.0000000000E+00  0.0000000000E+00
                       0.0000000000E+00  0.0000000000E+00  0.0000000000E+00
                       0.0000000000E+00  0.0000000000E+00  0.0000000000E+00
                       0.0000000000E+00  0.0000000000E+00  0.0000000000E+00
                       0.0000000000E+00  0.0000000000E+00  0.0000000000E+00
                       0.0000000000E+00  0.0000000000E+00  0.0000000000E+00
                       0.0000000000E+00  0.0000000000E+00  0.0000000000E+00
                       0.0000000000E+00  0.0000000000E+00  0.0000000000E+00
                       0.0000000000E+00  0.0000000000E+00  0.0000000000E+00
                       0.0000000000E+00  0.0000000000E+00  0.0000000000E+00
                       0.0000000000E+00  0.0000000000E+00  0.0000000000E+00
                       0.0000000000E+00  0.0000000000E+00  0.0000000000E+00
           symrel      1  0  0   0  1  0   0  0  1      -1  0  0   0 -1  0   0  0 -1
                      -1  0  0   0 -1  0   0  0  1       1  0  0   0  1  0   0  0 -1
            tnons      0.0000000  0.0000000  0.0000000    -0.0000000  0.0000000  0.5000000
                      -0.0000000  0.0000000  0.0000000     0.0000000  0.0000000  0.5000000
           toldfe      1.00000000E-06 Hartree
            typat      1  2  2  2  3  3  3  3  3  3  3  3  4  4  4  4  4  4  4  4
                       5  5  5  5  5  5  5  5  6  6  6  6  6  6  6  6
            upawu      2.57245278E-01  0.00000000E+00  0.00000000E+00  0.00000000E+00  0.00000000E+00  0.00000000E+00 Hartree
          usepawu           1
           useylm           1
         wfoptalg         114
           xangst      3.9794999826E+00  0.0000000000E+00  1.5919999931E+00
                       3.9794999826E+00  0.0000000000E+00  4.7759999793E+00
                      -4.4181325072E-16  3.9794999826E+00  7.5719328465E-04
                      -4.4181325072E-16  3.9794999826E+00  3.1832427929E+00
                       1.0143247787E+00  6.5690571807E+00  1.5919999931E+00
                       1.0111621849E+00  6.5663566220E+00  4.7759999793E+00
                       6.9446751865E+00  1.3899427846E+00  1.5919999931E+00
                       6.9478377803E+00  1.3926433433E+00  4.7759999793E+00
                       1.3927589215E+00  1.0130984918E+00  1.8301359443E-03
                       1.3927589215E+00  1.0130984918E+00  3.1821698502E+00
                       6.5662410438E+00  6.9459014734E+00  1.8301359443E-03
                       6.5662410438E+00  6.9459014734E+00  3.1821698502E+00
                       2.7994832606E+00  5.4313804085E+00  1.3556938181E-03
                       2.7994832606E+00  5.4313804085E+00  3.1826442924E+00
                       5.1595167046E+00  2.5276195568E+00  1.3556938181E-03
                       5.1595167046E+00  2.5276195568E+00  3.1826442924E+00
                       2.5294160873E+00  2.7943317518E+00  1.5919999931E+00
                       2.5291677168E+00  2.7979241244E+00  4.7759999793E+00
                       5.4295838779E+00  5.1646682135E+00  1.5919999931E+00
                       5.4298322485E+00  5.1610758409E+00  4.7759999793E+00
                       4.6504816075E+00  5.8173135707E+00 -4.5713082027E-04
                       4.6504816075E+00  5.8173135707E+00  3.1844571170E+00
                       3.3085183577E+00  2.1416863945E+00 -4.5713082027E-04
                       3.3085183577E+00  2.1416863945E+00  3.1844571170E+00
                       2.1504989180E+00  4.6488692932E+00  1.5919999931E+00
                       2.1522159784E+00  4.6510079274E+00  4.7759999793E+00
                       5.8085010472E+00  3.3101306721E+00  1.5919999931E+00
                       5.8067839869E+00  3.3079920378E+00  4.7759999793E+00
                       2.0097207164E+00  7.0596015932E+00 -5.2637374477E-04
                       2.0097207164E+00  7.0596015932E+00  3.1845263599E+00
                       5.9492792488E+00  8.9939837204E-01 -5.2637374477E-04
                       5.9492792488E+00  8.9939837204E-01  3.1845263599E+00
                       8.9776047273E-01  2.0143457932E+00  1.5919999931E+00
                       8.9722774423E-01  2.0175379077E+00  4.7759999793E+00
                       7.0612394925E+00  5.9446541721E+00  1.5919999931E+00
                       7.0617722210E+00  5.9414620576E+00  4.7759999793E+00
            xcart      7.5201651130E+00  0.0000000000E+00  3.0084439905E+00
                       7.5201651130E+00  0.0000000000E+00  9.0253319715E+00
                      -8.3490604574E-16  7.5201651130E+00  1.4308879376E-03
                      -8.3490604574E-16  7.5201651130E+00  6.0154570931E+00
                       1.9167960416E+00  1.2413719023E+01  3.0084439905E+00
                       1.9108196055E+00  1.2408615706E+01  9.0253319715E+00
                       1.3123534184E+01  2.6266112032E+00  3.0084439905E+00
                       1.3129510621E+01  2.6317145196E+00  9.0253319715E+00
                       2.6319329307E+00  1.9144786952E+00  3.4584557208E-03
                       2.6319329307E+00  1.9144786952E+00  6.0134295253E+00
                       1.2408397295E+01  1.3125851531E+01  3.4584557208E-03
                       1.2408397295E+01  1.3125851531E+01  6.0134295253E+00
                       5.2902566762E+00  1.0263821496E+01  2.5618900362E-03
                       5.2902566762E+00  1.0263821496E+01  6.0143260910E+00
                       9.7500735498E+00  4.7765087304E+00  2.5618900362E-03
                       9.7500735498E+00  4.7765087304E+00  6.0143260910E+00
                       4.7799036812E+00  5.2805217353E+00  3.0084439905E+00
                       4.7794343288E+00  5.2873103357E+00  9.0253319715E+00
                       1.0260426545E+01  9.7598084907E+00  3.0084439905E+00
                       1.0260895897E+01  9.7530198903E+00  9.0253319715E+00
                       8.7881366242E+00  1.0993129478E+01 -8.6385205721E-04
                       8.7881366242E+00  1.0993129478E+01  6.0177518331E+00
                       6.2521936018E+00  4.0472007482E+00 -8.6385205721E-04
                       6.2521936018E+00  4.0472007482E+00  6.0177518331E+00
                       4.0638540042E+00  8.7850897917E+00  3.0084439905E+00
                       4.0670987779E+00  8.7891312247E+00  9.0253319715E+00
                       1.0976476222E+01  6.2552404343E+00  3.0084439905E+00
                       1.0973231448E+01  6.2511990013E+00  9.0253319715E+00
                       3.7978217576E+00  1.3340713618E+01 -9.9470222116E-04
                       3.7978217576E+00  1.3340713618E+01  6.0178826832E+00
                       1.1242508468E+01  1.6996166075E+00 -9.9470222116E-04
                       1.1242508468E+01  1.6996166075E+00  6.0178826832E+00
                       1.6965214264E+00  3.8065618860E+00  3.0084439905E+00
                       1.6955147154E+00  3.8125941083E+00  9.0253319715E+00
                       1.3343808800E+01  1.1233768340E+01  3.0084439905E+00
                       1.3344815511E+01  1.1227736118E+01  9.0253319715E+00
             xred      5.0000000000E-01  0.0000000000E+00  2.5000000000E-01
                       5.0000000000E-01  0.0000000000E+00  7.5000000000E-01
                      -5.5511151231E-17  5.0000000000E-01  1.1890598115E-04
                      -5.5511151231E-17  5.0000000000E-01  4.9988109402E-01
                       1.2744374710E-01  8.2536213210E-01  2.5000000000E-01
                       1.2704638640E-01  8.2502282330E-01  7.5000000000E-01
                       8.7255625290E-01  1.7463786790E-01  2.5000000000E-01
                       8.7295361360E-01  1.7497717670E-01  7.5000000000E-01
                       1.7499169840E-01  1.2728967160E-01  2.8739572115E-04
                       1.7499169840E-01  1.2728967160E-01  4.9971260428E-01
                       8.2500830160E-01  8.7271032840E-01  2.8739572115E-04
                       8.2500830160E-01  8.7271032840E-01  4.9971260428E-01
                       3.5173806670E-01  6.8241995630E-01  2.1289161808E-04
                       3.5173806670E-01  6.8241995630E-01  4.9978710838E-01
                       6.4826193330E-01  3.1758004370E-01  2.1289161808E-04
                       6.4826193330E-01  3.1758004370E-01  4.9978710838E-01
                       3.1780576685E-01  3.5109081090E-01  2.5000000000E-01
                       3.1777456060E-01  3.5154217070E-01  7.5000000000E-01
                       6.8219423315E-01  6.4890918910E-01  2.5000000000E-01
                       6.8222543940E-01  6.4845782930E-01  7.5000000000E-01
                       5.8430476540E-01  7.3091011385E-01 -7.1785619073E-05
                       5.8430476540E-01  7.3091011385E-01  5.0007178562E-01
                       4.1569523460E-01  2.6908988615E-01 -7.1785619073E-05
                       4.1569523460E-01  2.6908988615E-01  5.0007178562E-01
                       2.7019712620E-01  5.8410218790E-01  2.5000000000E-01
                       2.7041286440E-01  5.8437089430E-01  7.5000000000E-01
                       7.2980287380E-01  4.1589781210E-01  2.5000000000E-01
                       7.2958713560E-01  4.1562910570E-01  7.5000000000E-01
                       2.5250920030E-01  8.8699605780E-01 -8.2659193947E-05
                       2.5250920030E-01  8.8699605780E-01  5.0008265919E-01
                       7.4749079970E-01  1.1300394220E-01 -8.2659193947E-05
                       7.4749079970E-01  1.1300394220E-01  5.0008265919E-01
                       1.1279815010E-01  2.5309031310E-01  2.5000000000E-01
                       1.1273121600E-01  2.5349138290E-01  7.5000000000E-01
                       8.8720184990E-01  7.4690968690E-01  2.5000000000E-01
                       8.8726878400E-01  7.4650861710E-01  7.5000000000E-01
            znucl       63.00000   38.00000    3.00000   13.00000    7.00000    8.00000

================================================================================

 chkinp: Checking input parameters for consistency.

================================================================================
== DATASET  1 ==================================================================
-   mpi_nproc: 2, omp_nthreads: -1 (-1 if OMP is not activated)


--- !DatasetInfo
iteration_state: {dtset: 1, }
dimensions: {natom: 36, nkpt: 1, mband: 115, nsppol: 2, nspinor: 1, nspden: 2, mpw: 2071, }
cutoff_energies: {ecut:  10.0, pawecutdg:  20.0, }
electrons: {nelect:   1.83000000E+02, charge:   0.00000000E+00, occopt:   2.00000000E+00, tsmear:   1.00000000E-02, }
meta: {optdriver: 0, ionmov: 0, optcell: 0, iscf: 17, paral_kgb: 1, }
...

 Real(R)+Recip(G) space primitive vectors, cartesian coordinates (Bohr,Bohr^-1):
 R(1)= 15.0403302  0.0000000  0.0000000  G(1)=  0.0664879  0.0000000  0.0000000
 R(2)=  0.0000000 15.0403302  0.0000000  G(2)=  0.0000000  0.0664879  0.0000000
 R(3)=  0.0000000  0.0000000 12.0337760  G(3)=  0.0000000  0.0000000  0.0830994
 Unit cell volume ucvol=  2.7221789E+03 bohr^3
 Angles (23,13,12)=  9.00000000E+01  9.00000000E+01  9.00000000E+01 degrees

 Coarse grid specifications (used for wave-functions):

 getcut: wavevector=  0.0000  0.0000  0.0000  ngfft=  45  45  36
         ecut(hartree)=     10.000   => boxcut(ratio)=   2.05509

 Fine grid specifications (used for densities):

 getcut: wavevector=  0.0000  0.0000  0.0000  ngfft=  64  64  50
         ecut(hartree)=     20.000   => boxcut(ratio)=   2.06390

--- Pseudopotential description ------------------------------------------------
- pspini: atom type   1  psp file is /Users/jbouquiaux/git/lumi_book/lumi_book/lumi/pseudos/Eu.xml
- pspatm: opening atomic psp file    /Users/jbouquiaux/git/lumi_book/lumi_book/lumi/pseudos/Eu.xml
- pspatm : Reading pseudopotential header in XML form from /Users/jbouquiaux/git/lumi_book/lumi_book/lumi/pseudos/Eu.xml
 Pseudopotential format is: paw10
 basis_size (lnmax)=  8 (lmn_size= 32), orbitals=   0   0   1   1   2   2   3   3
 Spheres core radius: rc_sph= 2.52170005
 1 radial meshes are used:
  - mesh 1: r(i)=AA*[exp(BB*(i-1))-1], size=1500 , AA= 0.14034E-03 BB= 0.88415E-02
 Shapefunction is SIN type: shapef(r)=[sin(pi*r/rshp)/(pi*r/rshp)]**2
 Radius for shape functions =  2.30830346
 mmax= 1500
 Radial grid used for partial waves is grid 1
 Radial grid used for projectors is grid 1
 Radial grid used for (t)core density is grid 1
 Radial grid used for Vloc is grid 1
 Radial grid used for pseudo valence density is grid 1
 Mesh size for Vloc has been set to 1343 to avoid numerical noise.
 Compensation charge density is not taken into account in XC energy/potential
 pspatm: atomic psp has been read  and splines computed

- pspini: atom type   2  psp file is /Users/jbouquiaux/git/lumi_book/lumi_book/lumi/pseudos/Sr.xml
- pspatm: opening atomic psp file    /Users/jbouquiaux/git/lumi_book/lumi_book/lumi/pseudos/Sr.xml
- pspatm : Reading pseudopotential header in XML form from /Users/jbouquiaux/git/lumi_book/lumi_book/lumi/pseudos/Sr.xml
 Pseudopotential format is: paw10
 basis_size (lnmax)=  6 (lmn_size= 18), orbitals=   0   0   1   1   2   2
 Spheres core radius: rc_sph= 2.20669967
 1 radial meshes are used:
  - mesh 1: r(i)=AA*[exp(BB*(i-1))-1], size=1500 , AA= 0.22443E-03 BB= 0.85283E-02
 Shapefunction is SIN type: shapef(r)=[sin(pi*r/rshp)/(pi*r/rshp)]**2
 Radius for shape functions =  1.81361893
 mmax= 1500
 Radial grid used for partial waves is grid 1
 Radial grid used for projectors is grid 1
 Radial grid used for (t)core density is grid 1
 Radial grid used for Vloc is grid 1
 Radial grid used for pseudo valence density is grid 1
 Mesh size for Vloc has been set to 1337 to avoid numerical noise.
 Compensation charge density is not taken into account in XC energy/potential
 pspatm: atomic psp has been read  and splines computed

- pspini: atom type   3  psp file is /Users/jbouquiaux/git/lumi_book/lumi_book/lumi/pseudos/Li.xml
- pspatm: opening atomic psp file    /Users/jbouquiaux/git/lumi_book/lumi_book/lumi/pseudos/Li.xml
- pspatm : Reading pseudopotential header in XML form from /Users/jbouquiaux/git/lumi_book/lumi_book/lumi/pseudos/Li.xml
 Pseudopotential format is: paw10
 basis_size (lnmax)=  5 (lmn_size=  9), orbitals=   0   0   0   1   1
 Spheres core radius: rc_sph= 1.60264751
 1 radial meshes are used:
  - mesh 1: r(i)=AA*[exp(BB*(i-1))-1], size=2001 , AA= 0.17851E-02 BB= 0.53552E-02
 Shapefunction is BESSEL type: shapef(r,l)=aa(1,l)*jl(q(1,l)*r)+aa(2,l)*jl(q(2,l)*r)
 Radius for shape functions =  1.30023672
 mmax= 2001
 Radial grid used for partial waves is grid 1
 Radial grid used for projectors is grid 1
 Radial grid used for (t)core density is grid 1
 Radial grid used for Vloc is grid 1
 Radial grid used for pseudo valence density is grid 1
 Mesh size for Vloc has been set to 1742 to avoid numerical noise.
 Compensation charge density is not taken into account in XC energy/potential
 pspatm: atomic psp has been read  and splines computed

- pspini: atom type   4  psp file is /Users/jbouquiaux/git/lumi_book/lumi_book/lumi/pseudos/Al.xml
- pspatm: opening atomic psp file    /Users/jbouquiaux/git/lumi_book/lumi_book/lumi/pseudos/Al.xml
- pspatm : Reading pseudopotential header in XML form from /Users/jbouquiaux/git/lumi_book/lumi_book/lumi/pseudos/Al.xml
 Pseudopotential format is: paw10
 basis_size (lnmax)=  4 (lmn_size=  8), orbitals=   0   0   1   1
 Spheres core radius: rc_sph= 1.90363307
 1 radial meshes are used:
  - mesh 1: r(i)=AA*[exp(BB*(i-1))-1], size=2001 , AA= 0.46377E-03 BB= 0.60291E-02
 Shapefunction is SIN type: shapef(r)=[sin(pi*r/rshp)/(pi*r/rshp)]**2
 Radius for shape functions =  1.60786206
 mmax= 2001
 Radial grid used for partial waves is grid 1
 Radial grid used for projectors is grid 1
 Radial grid used for (t)core density is grid 1
 Radial grid used for Vloc is grid 1
 Radial grid used for pseudo valence density is grid 1
 Mesh size for Vloc has been set to 1771 to avoid numerical noise.
 Compensation charge density is not taken into account in XC energy/potential
 pspatm: atomic psp has been read  and splines computed

- pspini: atom type   5  psp file is /Users/jbouquiaux/git/lumi_book/lumi_book/lumi/pseudos/N.xml
- pspatm: opening atomic psp file    /Users/jbouquiaux/git/lumi_book/lumi_book/lumi/pseudos/N.xml
- pspatm : Reading pseudopotential header in XML form from /Users/jbouquiaux/git/lumi_book/lumi_book/lumi/pseudos/N.xml
 Pseudopotential format is: paw10
 basis_size (lnmax)=  4 (lmn_size=  8), orbitals=   0   0   1   1
 Spheres core radius: rc_sph= 1.20000000
 1 radial meshes are used:
  - mesh 1: r(i)=AA*[exp(BB*(i-1))-1], size= 787 , AA= 0.19344E-02 BB= 0.13541E-01
 Shapefunction is SIN type: shapef(r)=[sin(pi*r/rshp)/(pi*r/rshp)]**2
 Radius for shape functions =  1.00599851
 mmax=  787
 Radial grid used for partial waves is grid 1
 Radial grid used for projectors is grid 1
 Radial grid used for (t)core density is grid 1
 Radial grid used for Vloc is grid 1
 Radial grid used for pseudo valence density is grid 1
 Mesh size for Vloc has been set to  683 to avoid numerical noise.
 Compensation charge density is not taken into account in XC energy/potential
 pspatm: atomic psp has been read  and splines computed

- pspini: atom type   6  psp file is /Users/jbouquiaux/git/lumi_book/lumi_book/lumi/pseudos/O.xml
- pspatm: opening atomic psp file    /Users/jbouquiaux/git/lumi_book/lumi_book/lumi/pseudos/O.xml
- pspatm : Reading pseudopotential header in XML form from /Users/jbouquiaux/git/lumi_book/lumi_book/lumi/pseudos/O.xml
 Pseudopotential format is: paw10
 basis_size (lnmax)=  4 (lmn_size=  8), orbitals=   0   0   1   1
 Spheres core radius: rc_sph= 1.41465230
 1 radial meshes are used:
  - mesh 1: r(i)=AA*[exp(BB*(i-1))-1], size=2001 , AA= 0.72565E-03 BB= 0.58052E-02
 Shapefunction is SIN type: shapef(r)=[sin(pi*r/rshp)/(pi*r/rshp)]**2
 Radius for shape functions =  1.20231231
 mmax= 2001
 Radial grid used for partial waves is grid 1
 Radial grid used for projectors is grid 1
 Radial grid used for (t)core density is grid 1
 Radial grid used for Vloc is grid 1
 Radial grid used for pseudo valence density is grid 1
 Mesh size for Vloc has been set to 1762 to avoid numerical noise.
 Compensation charge density is not taken into account in XC energy/potential
 pspatm: atomic psp has been read  and splines computed

   4.06209126E+04                                ecore*ucvol(ha*bohr**3)
--------------------------------------------------------------------------------

_setup2: Arith. and geom. avg. npw (full set) are    4141.000    4141.000


 ******************************************
 DFT+U Method used: FLL
 ******************************************

================================================================================

--- !BeginCycle
iteration_state: {dtset: 1, }
solver: {iscf: 17, nstep: 100, nline: 4, wfoptalg: 114, }
tolerances: {toldfe: 1.00E-06, }
...

     iter   Etot(hartree)      deltaE(h)  residm     nres2
 ETOT  1  -475.22111878233    -4.752E+02 9.881E-03 9.330E+00
 ETOT  2  -475.62477339100    -4.037E-01 3.138E-03 1.931E+01
 ETOT  3  -475.24368741400     3.811E-01 9.435E-03 1.829E+00
 ETOT  4  -475.37198315591    -1.283E-01 2.372E-03 7.518E-01
 ETOT  5  -475.40708258791    -3.510E-02 1.189E-03 3.720E-01
 ETOT  6  -475.40992294799    -2.840E-03 1.334E-03 1.640E-01
 ETOT  7  -475.40812176020     1.801E-03 1.240E-03 7.058E-02
 ETOT  8  -475.42395048769    -1.583E-02 3.573E-04 2.340E-02
 ETOT  9  -475.42422850757    -2.780E-04 1.201E-04 2.532E-02
 ETOT 10  -475.42450391496    -2.754E-04 4.451E-05 1.035E-02
 ETOT 11  -475.42461273294    -1.088E-04 4.099E-05 6.555E-03
 ETOT 12  -475.42471994354    -1.072E-04 2.543E-05 1.762E-03
 ETOT 13  -475.42478074614    -6.080E-05 4.633E-05 3.116E-04
 ETOT 14  -475.42482818352    -4.744E-05 2.613E-05 9.111E-05
 ETOT 15  -475.42484326909    -1.509E-05 4.332E-05 7.153E-05
 ETOT 16  -475.42485457411    -1.131E-05 2.230E-05 2.323E-05
 ETOT 17  -475.42486577759    -1.120E-05 3.458E-05 1.614E-05
 ETOT 18  -475.42487294625    -7.169E-06 1.666E-05 9.547E-06
 ETOT 19  -475.42488208547    -9.139E-06 2.467E-05 5.100E-06
 ETOT 20  -475.42489353598    -1.145E-05 1.135E-05 3.651E-06
 ETOT 21  -475.42489618841    -2.652E-06 1.632E-05 2.951E-06
 ETOT 22  -475.42490002880    -3.840E-06 7.301E-06 2.420E-06
 ETOT 23  -475.42490760227    -7.573E-06 1.033E-05 2.032E-06
 ETOT 24  -475.42491313273    -5.530E-06 4.555E-06 2.236E-06
 ETOT 25  -475.42491980194    -6.669E-06 6.364E-06 1.969E-06
 ETOT 26  -475.42493564359    -1.584E-05 2.792E-06 2.003E-06
 ETOT 27  -475.42494079016    -5.147E-06 3.932E-06 1.649E-06
 ETOT 28  -475.42495661955    -1.583E-05 1.714E-06 1.463E-06
 ETOT 29  -475.42497057689    -1.396E-05 2.748E-06 1.380E-06
 ETOT 30  -475.42497591841    -5.342E-06 3.650E-06 1.164E-06
 ETOT 31  -475.42497590769     1.072E-08 2.715E-07 8.877E-07
 ETOT 32  -475.42498404332    -8.136E-06 1.600E-06 8.778E-07
 ETOT 33  -475.42498507111    -1.028E-06 9.611E-08 9.386E-07
 ETOT 34  -475.42499334823    -8.277E-06 2.602E-07 1.921E-06
 ETOT 35  -475.42499444315    -1.095E-06 5.093E-08 2.919E-07
 ETOT 36  -475.42499572209    -1.279E-06 1.009E-07 3.624E-07
 ETOT 37  -475.42499844446    -2.722E-06 6.451E-08 1.857E-07
 ETOT 38  -475.42499918376    -7.393E-07 5.194E-08 2.354E-07
 ETOT 39  -475.42499928072    -9.696E-08 5.188E-08 5.901E-08

 At SCF step   39, etot is converged : 
  for the second time, diff in etot=  9.696E-08 < toldfe=  1.000E-06

 Cartesian components of stress tensor (hartree/bohr^3)
  sigma(1 1)=  2.66697057E-03  sigma(3 2)=  0.00000000E+00
  sigma(2 2)=  2.69195257E-03  sigma(3 1)=  0.00000000E+00
  sigma(3 3)=  2.50050021E-03  sigma(2 1)= -7.62919595E-06


--- !ResultsGS
iteration_state: {dtset: 1, }
comment   : Summary of ground state results
lattice_vectors:
- [ 15.0403302,   0.0000000,   0.0000000, ]
- [  0.0000000,  15.0403302,   0.0000000, ]
- [  0.0000000,   0.0000000,  12.0337760, ]
lattice_lengths: [  15.04033,   15.04033,   12.03378, ]
lattice_angles: [ 90.000,  90.000,  90.000, ] # degrees, (23, 13, 12)
lattice_volume:   2.7221789E+03
convergence: {deltae: -9.696E-08, res2:  5.901E-08, residm:  5.188E-08, diffor: null, }
etotal    :  -4.75424999E+02
entropy   :   0.00000000E+00
fermie    :   2.63064936E-01
cartesian_stress_tensor: # hartree/bohr^3
- [  2.66697057E-03,  -7.62919595E-06,   0.00000000E+00, ]
- [ -7.62919595E-06,   2.69195257E-03,   0.00000000E+00, ]
- [  0.00000000E+00,   0.00000000E+00,   2.50050021E-03, ]
pressure_GPa:  -7.7077E+01
xred      :
- [  5.0000E-01,   0.0000E+00,   2.5000E-01, Eu]
- [  5.0000E-01,   0.0000E+00,   7.5000E-01, Sr]
- [ -5.5511E-17,   5.0000E-01,   1.1891E-04, Sr]
- [ -5.5511E-17,   5.0000E-01,   4.9988E-01, Sr]
- [  1.2744E-01,   8.2536E-01,   2.5000E-01, Li]
- [  1.2705E-01,   8.2502E-01,   7.5000E-01, Li]
- [  8.7256E-01,   1.7464E-01,   2.5000E-01, Li]
- [  8.7295E-01,   1.7498E-01,   7.5000E-01, Li]
- [  1.7499E-01,   1.2729E-01,   2.8740E-04, Li]
- [  1.7499E-01,   1.2729E-01,   4.9971E-01, Li]
- [  8.2501E-01,   8.7271E-01,   2.8740E-04, Li]
- [  8.2501E-01,   8.7271E-01,   4.9971E-01, Li]
- [  3.5174E-01,   6.8242E-01,   2.1289E-04, Al]
- [  3.5174E-01,   6.8242E-01,   4.9979E-01, Al]
- [  6.4826E-01,   3.1758E-01,   2.1289E-04, Al]
- [  6.4826E-01,   3.1758E-01,   4.9979E-01, Al]
- [  3.1781E-01,   3.5109E-01,   2.5000E-01, Al]
- [  3.1777E-01,   3.5154E-01,   7.5000E-01, Al]
- [  6.8219E-01,   6.4891E-01,   2.5000E-01, Al]
- [  6.8223E-01,   6.4846E-01,   7.5000E-01, Al]
- [  5.8430E-01,   7.3091E-01,  -7.1786E-05,  N]
- [  5.8430E-01,   7.3091E-01,   5.0007E-01,  N]
- [  4.1570E-01,   2.6909E-01,  -7.1786E-05,  N]
- [  4.1570E-01,   2.6909E-01,   5.0007E-01,  N]
- [  2.7020E-01,   5.8410E-01,   2.5000E-01,  N]
- [  2.7041E-01,   5.8437E-01,   7.5000E-01,  N]
- [  7.2980E-01,   4.1590E-01,   2.5000E-01,  N]
- [  7.2959E-01,   4.1563E-01,   7.5000E-01,  N]
- [  2.5251E-01,   8.8700E-01,  -8.2659E-05,  O]
- [  2.5251E-01,   8.8700E-01,   5.0008E-01,  O]
- [  7.4749E-01,   1.1300E-01,  -8.2659E-05,  O]
- [  7.4749E-01,   1.1300E-01,   5.0008E-01,  O]
- [  1.1280E-01,   2.5309E-01,   2.5000E-01,  O]
- [  1.1273E-01,   2.5349E-01,   7.5000E-01,  O]
- [  8.8720E-01,   7.4691E-01,   2.5000E-01,  O]
- [  8.8727E-01,   7.4651E-01,   7.5000E-01,  O]
cartesian_forces: # hartree/bohr
- [ -2.40933816E-20,  -1.20466908E-20,  -0.00000000E+00, ]
- [ -2.40933816E-20,  -1.20466908E-20,  -0.00000000E+00, ]
- [ -2.40933816E-20,  -1.20466908E-20,   5.56361710E-04, ]
- [ -2.40933816E-20,  -1.20466908E-20,  -5.56361710E-04, ]
- [ -4.64418269E-04,  -9.63403596E-04,  -0.00000000E+00, ]
- [  6.69195837E-05,  -6.87561904E-05,  -0.00000000E+00, ]
- [  4.64418269E-04,   9.63403596E-04,  -0.00000000E+00, ]
- [ -6.69195837E-05,   6.87561904E-05,   3.56613198E-29, ]
- [  1.28239306E-04,   1.45667543E-04,  -8.10431764E-04, ]
- [  1.28239306E-04,   1.45667543E-04,   8.10431764E-04, ]
- [ -1.28239306E-04,  -1.45667543E-04,  -8.10431764E-04, ]
- [ -1.28239306E-04,  -1.45667543E-04,   8.10431764E-04, ]
- [  5.79301165E-04,   5.72067663E-04,   5.03306540E-04, ]
- [  5.79301165E-04,   5.72067663E-04,  -5.03306540E-04, ]
- [ -5.79301165E-04,  -5.72067663E-04,   5.03306540E-04, ]
- [ -5.79301165E-04,  -5.72067663E-04,  -5.03306540E-04, ]
- [ -6.91580805E-04,   2.53712112E-03,  -0.00000000E+00, ]
- [ -1.29833523E-03,  -2.47018780E-03,  -0.00000000E+00, ]
- [  6.91580805E-04,  -2.53712112E-03,  -0.00000000E+00, ]
- [  1.29833523E-03,   2.47018780E-03,  -0.00000000E+00, ]
- [ -2.07179389E-03,   4.55834224E-03,   6.07595707E-03, ]
- [ -2.07179389E-03,   4.55834224E-03,  -6.07595707E-03, ]
- [  2.07179389E-03,  -4.55834224E-03,   6.07595707E-03, ]
- [  2.07179389E-03,  -4.55834224E-03,  -6.07595707E-03, ]
- [ -7.63542235E-04,  -1.30781778E-03,  -0.00000000E+00, ]
- [  1.20418025E-03,  -1.62898551E-03,  -1.07403504E-27, ]
- [  7.63542235E-04,   1.30781778E-03,  -0.00000000E+00, ]
- [ -1.20418025E-03,   1.62898551E-03,   1.07403504E-27, ]
- [  2.45483113E-03,   2.44038456E-03,   6.52075653E-03, ]
- [  2.45483113E-03,   2.44038456E-03,  -6.52075653E-03, ]
- [ -2.45483113E-03,  -2.44038456E-03,   6.52075653E-03, ]
- [ -2.45483113E-03,  -2.44038456E-03,  -6.52075653E-03, ]
- [ -7.57337487E-04,  -2.24398899E-04,  -0.00000000E+00, ]
- [ -1.39604207E-03,   5.83142584E-04,  -1.34254380E-28, ]
- [  7.57337487E-04,   2.24398899E-04,  -0.00000000E+00, ]
- [  1.39604207E-03,  -5.83142584E-04,   1.34254380E-28, ]
force_length_stats: {min:   2.69372195E-20, max:   7.87325017E-03, mean:   2.61542657E-03, }
...

 Integrated electronic and magnetization densities in atomic spheres:
 ---------------------------------------------------------------------
 Radius=ratsph(iatom), smearing ratsm=  0.0000. Diff(up-dn)=approximate z local magnetic moment.
 Atom    Radius    up_density   dn_density  Total(up+dn)  Diff(up-dn)
    1   2.52170    10.402019     4.039247     14.441266     6.362771
    2   2.20670     3.738411     3.652920      7.391331     0.085491
    3   2.20670     3.668554     3.658240      7.326794     0.010314
    4   2.20670     3.668554     3.658240      7.326794     0.010314
    5   1.60265     1.061284     1.060958      2.122242     0.000326
    6   1.60265     1.059193     1.059604      2.118797    -0.000411
    7   1.60265     1.061284     1.060958      2.122242     0.000326
    8   1.60265     1.059193     1.059604      2.118797    -0.000411
    9   1.60265     1.061530     1.061300      2.122830     0.000230
   10   1.60265     1.061530     1.061300      2.122830     0.000230
   11   1.60265     1.061530     1.061300      2.122830     0.000230
   12   1.60265     1.061530     1.061300      2.122830     0.000230
   13   1.90363     0.479257     0.476588      0.955844     0.002669
   14   1.90363     0.479257     0.476588      0.955844     0.002669
   15   1.90363     0.479257     0.476588      0.955844     0.002669
   16   1.90363     0.479257     0.476588      0.955844     0.002669
   17   1.90363     0.484070     0.481437      0.965507     0.002633
   18   1.90363     0.481138     0.479633      0.960771     0.001506
   19   1.90363     0.484070     0.481437      0.965507     0.002633
   20   1.90363     0.481138     0.479633      0.960771     0.001506
   21   1.20000     1.227727     1.238285      2.466013    -0.010558
   22   1.20000     1.227727     1.238285      2.466013    -0.010558
   23   1.20000     1.227727     1.238285      2.466013    -0.010558
   24   1.20000     1.227727     1.238285      2.466013    -0.010558
   25   1.20000     1.240231     1.239925      2.480156     0.000305
   26   1.20000     1.235447     1.237845      2.473293    -0.002398
   27   1.20000     1.240231     1.239925      2.480156     0.000305
   28   1.20000     1.235447     1.237845      2.473293    -0.002398
   29   1.41465     2.286833     2.297565      4.584398    -0.010732
   30   1.41465     2.286833     2.297565      4.584398    -0.010732
   31   1.41465     2.286833     2.297565      4.584398    -0.010732
   32   1.41465     2.286833     2.297565      4.584398    -0.010732
   33   1.41465     2.292755     2.292032      4.584787     0.000723
   34   1.41465     2.294560     2.293848      4.588408     0.000713
   35   1.41465     2.292755     2.292032      4.584787     0.000723
   36   1.41465     2.294560     2.293848      4.588408     0.000713
 ---------------------------------------------------------------------
  Sum:             61.996283    55.594162    117.590445     6.402121
 Total magnetization (from the atomic spheres):             6.402121
 Total magnetization (exact up - dn):                       7.000068

 PAW TEST:
 ==== Compensation charge inside spheres ============
 The following values must be close to each other ...
 Compensation charge over spherical meshes =     15.632022077344232
 Compensation charge over fine fft grid    =     15.632204801401739

 ==== Results concerning PAW augmentation regions ====

 Total pseudopotential strength Dij (hartree):
 Atom #  1 - Spin component 1
  -0.67558  -0.09368   0.00000   0.00000   0.00000   0.00000   0.00000   0.00000   0.00003   0.00000   0.00001   0.00000 ...
  -0.09368  -0.09942   0.00000   0.00000   0.00000   0.00000   0.00000   0.00000   0.00001   0.00000   0.00012   0.00000 ...
   0.00000   0.00000  -0.74604   0.00000   0.00020   0.21312   0.00000  -0.00038   0.00000   0.00000   0.00000   0.00000 ...
   0.00000   0.00000   0.00000  -0.74472   0.00000   0.00000   0.21041   0.00000   0.00000   0.00000   0.00000   0.00000 ...
   0.00000   0.00000   0.00020   0.00000  -0.74623  -0.00038   0.00000   0.21351   0.00000   0.00000   0.00000   0.00000 ...
   0.00000   0.00000   0.21312   0.00000  -0.00038   0.81918   0.00000   0.00028   0.00000   0.00000   0.00000   0.00000 ...
   0.00000   0.00000   0.00000   0.21041   0.00000   0.00000   0.82120   0.00000   0.00000   0.00000   0.00000   0.00000 ...
   0.00000   0.00000  -0.00038   0.00000   0.21351   0.00028   0.00000   0.81888   0.00000   0.00000   0.00000   0.00000 ...
   0.00003   0.00001   0.00000   0.00000   0.00000   0.00000   0.00000   0.00000  -0.19297   0.00000  -0.00005   0.00000 ...
   0.00000   0.00000   0.00000   0.00000   0.00000   0.00000   0.00000   0.00000   0.00000  -0.19306   0.00000   0.00000 ...
   0.00001   0.00012   0.00000   0.00000   0.00000   0.00000   0.00000   0.00000  -0.00005   0.00000  -0.19239   0.00000 ...
   0.00000   0.00000   0.00000   0.00000   0.00000   0.00000   0.00000   0.00000   0.00000   0.00000   0.00000  -0.19306 ...
   ...  only 12  components have been written...
 Atom #  1 - Spin component 2
  -0.61150  -0.08455   0.00000   0.00000   0.00000   0.00000   0.00000   0.00000   0.00005   0.00000  -0.00025   0.00000 ...
  -0.08455  -0.09761   0.00000   0.00000   0.00000   0.00000   0.00000   0.00000   0.00002   0.00000   0.00004   0.00000 ...
   0.00000   0.00000  -0.68960   0.00000   0.00029   0.15621   0.00000  -0.00058   0.00000   0.00000   0.00000   0.00000 ...
   0.00000   0.00000   0.00000  -0.68803   0.00000   0.00000   0.15197   0.00000   0.00000   0.00000   0.00000   0.00000 ...
   0.00000   0.00000   0.00029   0.00000  -0.68960  -0.00058   0.00000   0.15681   0.00000   0.00000   0.00000   0.00000 ...
   0.00000   0.00000   0.15621   0.00000  -0.00058   0.87958   0.00000   0.00040   0.00000   0.00000   0.00000   0.00000 ...
   0.00000   0.00000   0.00000   0.15197   0.00000   0.00000   0.88166   0.00000   0.00000   0.00000   0.00000   0.00000 ...
   0.00000   0.00000  -0.00058   0.00000   0.15681   0.00040   0.00000   0.87944   0.00000   0.00000   0.00000   0.00000 ...
   0.00005   0.00002   0.00000   0.00000   0.00000   0.00000   0.00000   0.00000  -0.17875   0.00000  -0.00004   0.00000 ...
   0.00000   0.00000   0.00000   0.00000   0.00000   0.00000   0.00000   0.00000   0.00000  -0.17972   0.00000   0.00004 ...
  -0.00025   0.00004   0.00000   0.00000   0.00000   0.00000   0.00000   0.00000  -0.00004   0.00000  -0.17766   0.00000 ...
   0.00000   0.00000   0.00000   0.00000   0.00000   0.00000   0.00000   0.00000   0.00000   0.00004   0.00000  -0.17967 ...
   ...  only 12  components have been written...
 Atom # 36 - Spin component 1
   0.60642  -1.78331   0.00030   0.00000   0.00064  -0.00199   0.00000  -0.00433
  -1.78331   5.31157  -0.00082   0.00000  -0.00177   0.00554   0.00000   0.01201
   0.00030  -0.00082  -0.31570   0.00000  -0.00027   0.95121   0.00000   0.00134
   0.00000   0.00000   0.00000  -0.31531   0.00000   0.00000   0.94917   0.00000
   0.00064  -0.00177  -0.00027   0.00000  -0.31611   0.00134   0.00000   0.95326
  -0.00199   0.00554   0.95121   0.00000   0.00134  -0.28479   0.00000  -0.00640
   0.00000   0.00000   0.00000   0.94917   0.00000   0.00000  -0.27443   0.00000
  -0.00433   0.01201   0.00134   0.00000   0.95326  -0.00640   0.00000  -0.29448
 Atom # 36 - Spin component 2
   0.60641  -1.78327   0.00029   0.00000   0.00064  -0.00198   0.00000  -0.00427
  -1.78327   5.31145  -0.00081   0.00000  -0.00175   0.00551   0.00000   0.01186
   0.00029  -0.00081  -0.31570   0.00000  -0.00024   0.95125   0.00000   0.00121
   0.00000   0.00000   0.00000  -0.31530   0.00000   0.00000   0.94914   0.00000
   0.00064  -0.00175  -0.00024   0.00000  -0.31606   0.00121   0.00000   0.95302
  -0.00198   0.00551   0.95125   0.00000   0.00121  -0.28496   0.00000  -0.00580
   0.00000   0.00000   0.00000   0.94914   0.00000   0.00000  -0.27426   0.00000
  -0.00427   0.01186   0.00121   0.00000   0.95302  -0.00580   0.00000  -0.29327


 Augmentation waves occupancies Rhoij:
 Atom #  1 - Spin component 1
   1.04467  -0.09973   0.00000   0.00000   0.00000   0.00000   0.00000   0.00000   0.00096   0.00000  -0.02555   0.00000 ...
  -0.09973   0.14640   0.00000   0.00000   0.00000   0.00000   0.00000   0.00000  -0.00504   0.00000   0.04686   0.00000 ...
   0.00000   0.00000   1.00809   0.00000   0.00050  -0.00912   0.00000  -0.00032   0.00000   0.00000   0.00000   0.00000 ...
   0.00000   0.00000   0.00000   1.00650   0.00000   0.00000  -0.00777   0.00000   0.00000   0.00000   0.00000   0.00000 ...
   0.00000   0.00000   0.00050   0.00000   1.00748  -0.00032   0.00000  -0.00843   0.00000   0.00000   0.00000   0.00000 ...
   0.00000   0.00000  -0.00912   0.00000  -0.00032   0.00578   0.00000   0.00011   0.00000   0.00000   0.00000   0.00000 ...
   0.00000   0.00000   0.00000  -0.00777   0.00000   0.00000   0.00494   0.00000   0.00000   0.00000   0.00000   0.00000 ...
   0.00000   0.00000  -0.00032   0.00000  -0.00843   0.00011   0.00000   0.00472   0.00000   0.00000   0.00000   0.00000 ...
   0.00096  -0.00504   0.00000   0.00000   0.00000   0.00000   0.00000   0.00000   0.06067   0.00000  -0.02993   0.00000 ...
   0.00000   0.00000   0.00000   0.00000   0.00000   0.00000   0.00000   0.00000   0.00000   0.09644   0.00000  -0.01050 ...
  -0.02555   0.04686   0.00000   0.00000   0.00000   0.00000   0.00000   0.00000  -0.02993   0.00000   0.58639   0.00000 ...
   0.00000   0.00000   0.00000   0.00000   0.00000   0.00000   0.00000   0.00000   0.00000  -0.01050   0.00000   0.07928 ...
   ...  only 12  components have been written...
 Atom #  1 - Spin component 2
   0.99567   0.00001   0.00000   0.00000   0.00000   0.00000   0.00000   0.00000  -0.00109   0.00000  -0.01105   0.00000 ...
   0.00001   0.10939   0.00000   0.00000   0.00000   0.00000   0.00000   0.00000  -0.00158   0.00000   0.00410   0.00000 ...
   0.00000   0.00000   0.99959   0.00000   0.00067   0.00996   0.00000  -0.00037   0.00000   0.00000   0.00000   0.00000 ...
   0.00000   0.00000   0.00000   0.99876   0.00000   0.00000   0.00971   0.00000   0.00000   0.00000   0.00000   0.00000 ...
   0.00000   0.00000   0.00067   0.00000   0.99882  -0.00037   0.00000   0.01096   0.00000   0.00000   0.00000   0.00000 ...
   0.00000   0.00000   0.00996   0.00000  -0.00037   0.00487   0.00000   0.00009   0.00000   0.00000   0.00000   0.00000 ...
   0.00000   0.00000   0.00000   0.00971   0.00000   0.00000   0.00411   0.00000   0.00000   0.00000   0.00000   0.00000 ...
   0.00000   0.00000  -0.00037   0.00000   0.01096   0.00009   0.00000   0.00402   0.00000   0.00000   0.00000   0.00000 ...
  -0.00109  -0.00158   0.00000   0.00000   0.00000   0.00000   0.00000   0.00000   0.04055   0.00000   0.00077   0.00000 ...
   0.00000   0.00000   0.00000   0.00000   0.00000   0.00000   0.00000   0.00000   0.00000   0.06867   0.00000  -0.00678 ...
  -0.01105   0.00410   0.00000   0.00000   0.00000   0.00000   0.00000   0.00000   0.00077   0.00000   0.01439   0.00000 ...
   0.00000   0.00000   0.00000   0.00000   0.00000   0.00000   0.00000   0.00000   0.00000  -0.00678   0.00000   0.05620 ...
   ...  only 12  components have been written...
 Atom # 36 - Spin component 1
   0.99614   0.01390  -0.00032   0.00000  -0.00590  -0.00053   0.00000  -0.00161
   0.01390   0.00035  -0.00203   0.00000  -0.00488  -0.00013   0.00000  -0.00029
  -0.00032  -0.00203   1.07093   0.00000   0.01133   0.04997   0.00000   0.00154
   0.00000   0.00000   0.00000   1.10761   0.00000   0.00000   0.05060   0.00000
  -0.00590  -0.00488   0.01133   0.00000   1.10027   0.00161   0.00000   0.05299
  -0.00053  -0.00013   0.04997   0.00000   0.00161   0.00235   0.00000   0.00013
   0.00000   0.00000   0.00000   0.05060   0.00000   0.00000   0.00233   0.00000
  -0.00161  -0.00029   0.00154   0.00000   0.05299   0.00013   0.00000   0.00258
 Atom # 36 - Spin component 2
   0.99602   0.01393  -0.00013   0.00000  -0.00516  -0.00052   0.00000  -0.00160
   0.01393   0.00034  -0.00206   0.00000  -0.00503  -0.00013   0.00000  -0.00029
  -0.00013  -0.00206   1.07212   0.00000   0.00979   0.05001   0.00000   0.00150
   0.00000   0.00000   0.00000   1.10793   0.00000   0.00000   0.05061   0.00000
  -0.00516  -0.00503   0.00979   0.00000   1.09815   0.00158   0.00000   0.05296
  -0.00052  -0.00013   0.05001   0.00000   0.00158   0.00235   0.00000   0.00013
   0.00000   0.00000   0.00000   0.05061   0.00000   0.00000   0.00233   0.00000
  -0.00160  -0.00029   0.00150   0.00000   0.05296   0.00013   0.00000   0.00258

 "PAW+U" part of augmentation waves occupancies Rhoij:
 Atom #  1 - L=3 ONLY - Spin component 1
   0.99439   0.00000   0.00044   0.00000   0.00590   0.00000   0.00008  -0.00002   0.00000   0.00014   0.00000   0.00222   0.00000  -0.00007
   0.00000   0.58183   0.00000  -0.00421   0.00000  -0.42183   0.00000   0.00000   0.01169   0.00000   0.00104   0.00000   0.01550   0.00000
   0.00044   0.00000   0.99209   0.00000  -0.00002   0.00000   0.00457   0.00018   0.00000  -0.00063   0.00000   0.00016   0.00000   0.00164
   0.00000  -0.00421   0.00000   0.99933   0.00000  -0.00193   0.00000   0.00000  -0.00017   0.00000   0.00201   0.00000   0.00141   0.00000
   0.00590   0.00000  -0.00002   0.00000   0.99008   0.00000   0.00162   0.00219   0.00000   0.00015   0.00000  -0.00148   0.00000   0.00053
   0.00000  -0.42183   0.00000  -0.00193   0.00000   0.54110   0.00000   0.00000   0.01589   0.00000   0.00264   0.00000   0.01288   0.00000
   0.00008   0.00000   0.00457   0.00000   0.00162   0.00000   0.99614  -0.00013   0.00000   0.00165   0.00000   0.00050   0.00000   0.00058
  -0.00002   0.00000   0.00018   0.00000   0.00219   0.00000  -0.00013   0.00261   0.00000   0.00004   0.00000   0.00043   0.00000  -0.00020
   0.00000   0.01169   0.00000  -0.00017   0.00000   0.01589   0.00000   0.00000   0.00407   0.00000  -0.00028   0.00000   0.00177   0.00000
   0.00014   0.00000  -0.00063   0.00000   0.00015   0.00000   0.00165   0.00004   0.00000   0.00259   0.00000   0.00024   0.00000   0.00029
   0.00000   0.00104   0.00000   0.00201   0.00000   0.00264   0.00000   0.00000  -0.00028   0.00000   0.00332   0.00000   0.00068   0.00000
   0.00222   0.00000   0.00016   0.00000  -0.00148   0.00000   0.00050   0.00043   0.00000   0.00024   0.00000   0.00245   0.00000  -0.00006
   0.00000   0.01550   0.00000   0.00141   0.00000   0.01288   0.00000   0.00000   0.00177   0.00000   0.00068   0.00000   0.00432   0.00000
  -0.00007   0.00000   0.00164   0.00000   0.00053   0.00000   0.00058  -0.00020   0.00000   0.00029   0.00000  -0.00006   0.00000   0.00257
 Atom #  1 - L=3 ONLY - Spin component 2
   0.01422   0.00000  -0.00004   0.00000   0.00312   0.00000  -0.00087   0.00534   0.00000   0.00002   0.00000   0.00106   0.00000  -0.00037
   0.00000   0.03412   0.00000  -0.00032   0.00000   0.02288   0.00000   0.00000   0.01161   0.00000  -0.00024   0.00000   0.00729   0.00000
  -0.00004   0.00000   0.01411   0.00000   0.00105   0.00000   0.00271   0.00001   0.00000   0.00520   0.00000   0.00044   0.00000   0.00087
   0.00000  -0.00032   0.00000   0.01762   0.00000   0.00455   0.00000   0.00000  -0.00029   0.00000   0.00674   0.00000   0.00156   0.00000
   0.00312   0.00000   0.00105   0.00000   0.01299   0.00000  -0.00063   0.00112   0.00000   0.00042   0.00000   0.00484   0.00000  -0.00018
   0.00000   0.02288   0.00000   0.00455   0.00000   0.03579   0.00000   0.00000   0.00730   0.00000   0.00170   0.00000   0.01230   0.00000
  -0.00087   0.00000   0.00271   0.00000  -0.00063   0.00000   0.01378  -0.00036   0.00000   0.00085   0.00000  -0.00018   0.00000   0.00521
   0.00534   0.00000   0.00001   0.00000   0.00112   0.00000  -0.00036   0.00202   0.00000   0.00002   0.00000   0.00039   0.00000  -0.00015
   0.00000   0.01161   0.00000  -0.00029   0.00000   0.00730   0.00000   0.00000   0.00399   0.00000  -0.00015   0.00000   0.00234   0.00000
   0.00002   0.00000   0.00520   0.00000   0.00042   0.00000   0.00085   0.00002   0.00000   0.00193   0.00000   0.00017   0.00000   0.00027
   0.00000  -0.00024   0.00000   0.00674   0.00000   0.00170   0.00000   0.00000  -0.00015   0.00000   0.00261   0.00000   0.00059   0.00000
   0.00106   0.00000   0.00044   0.00000   0.00484   0.00000  -0.00018   0.00039   0.00000   0.00017   0.00000   0.00181   0.00000  -0.00004
   0.00000   0.00729   0.00000   0.00156   0.00000   0.01230   0.00000   0.00000   0.00234   0.00000   0.00059   0.00000   0.00428   0.00000
  -0.00037   0.00000   0.00087   0.00000  -0.00018   0.00000   0.00521  -0.00015   0.00000   0.00027   0.00000  -0.00004   0.00000   0.00198

 ---------- DFT+U DATA --------------------------------------------------- 

 ====== For Atom     1, occupations for correlated orbitals. lpawu =   3

 Atom   1. Occ. for lpawu and for spin  1 =   6.00673
 Atom   1. Occ. for lpawu and for spin  2 =   0.03143
 => On atom   1,  local Mag. for lpawu is       -5.975299

 == Occupation matrix for correlated orbitals:

 Occupation matrix for spin  1
     0.99056    0.00000    0.00002    0.00000   -0.00014    0.00000   -0.00028
     0.00000    0.54876    0.00000   -0.00658    0.00000   -0.46331    0.00000
     0.00002    0.00000    0.99025    0.00000    0.00027    0.00000   -0.00006
     0.00000   -0.00658    0.00000    0.99097    0.00000   -0.00640    0.00000
    -0.00014    0.00000    0.00027    0.00000    0.99065    0.00000   -0.00036
     0.00000   -0.46331    0.00000   -0.00640    0.00000    0.50542    0.00000
    -0.00028    0.00000   -0.00006    0.00000   -0.00036    0.00000    0.99012


 Occupation matrix for spin  2
     0.00289    0.00000   -0.00004    0.00000    0.00071    0.00000   -0.00014
     0.00000    0.00814    0.00000    0.00006    0.00000    0.00594    0.00000
    -0.00004    0.00000    0.00296    0.00000    0.00018    0.00000    0.00069
     0.00000    0.00006    0.00000    0.00355    0.00000    0.00100    0.00000
     0.00071    0.00000    0.00018    0.00000    0.00268    0.00000   -0.00017
     0.00000    0.00594    0.00000    0.00100    0.00000    0.00843    0.00000
    -0.00014    0.00000    0.00069    0.00000   -0.00017    0.00000    0.00279



================================================================================

 ----iterations are completed or convergence reached----

GS calculation converged with prtwf=-1 --> Skipping WFK file output
 reduced coordinates (array xred) for   36 atoms
       0.500000000000      0.000000000000      0.250000000000
       0.500000000000      0.000000000000      0.750000000000
      -0.000000000000      0.500000000000      0.000118905981
      -0.000000000000      0.500000000000      0.499881094019
       0.127443747100      0.825362132100      0.250000000000
       0.127046386400      0.825022823300      0.750000000000
       0.872556252900      0.174637867900      0.250000000000
       0.872953613600      0.174977176700      0.750000000000
       0.174991698400      0.127289671600      0.000287395721
       0.174991698400      0.127289671600      0.499712604279
       0.825008301600      0.872710328400      0.000287395721
       0.825008301600      0.872710328400      0.499712604279
       0.351738066700      0.682419956300      0.000212891618
       0.351738066700      0.682419956300      0.499787108382
       0.648261933300      0.317580043700      0.000212891618
       0.648261933300      0.317580043700      0.499787108382
       0.317805766850      0.351090810900      0.250000000000
       0.317774560600      0.351542170700      0.750000000000
       0.682194233150      0.648909189100      0.250000000000
       0.682225439400      0.648457829300      0.750000000000
       0.584304765400      0.730910113850     -0.000071785619
       0.584304765400      0.730910113850      0.500071785619
       0.415695234600      0.269089886150     -0.000071785619
       0.415695234600      0.269089886150      0.500071785619
       0.270197126200      0.584102187900      0.250000000000
       0.270412864400      0.584370894300      0.750000000000
       0.729802873800      0.415897812100      0.250000000000
       0.729587135600      0.415629105700      0.750000000000
       0.252509200300      0.886996057800     -0.000082659194
       0.252509200300      0.886996057800      0.500082659194
       0.747490799700      0.113003942200     -0.000082659194
       0.747490799700      0.113003942200      0.500082659194
       0.112798150100      0.253090313100      0.250000000000
       0.112731216000      0.253491382900      0.750000000000
       0.887201849900      0.746909686900      0.250000000000
       0.887268784000      0.746508617100      0.750000000000
 rms dE/dt=  2.9215E-02; max dE/dt=  7.8469E-02; dE/dt below (all hartree)
    1       0.000000000000      0.000000000000      0.000000000000
    2       0.000000000000      0.000000000000      0.000000000000
    3      -0.000000000000     -0.000000000000     -0.006695132169
    4       0.000000000000      0.000000000000      0.006695132169
    5       0.006985004125      0.014489908229      0.000000000000
    6      -0.001006492638      0.001034115808      0.000000000000
    7      -0.006985004125     -0.014489908229      0.000000000000
    8       0.001006492638     -0.001034115808     -0.000000000000
    9      -0.001928761510     -0.002190887945      0.009752554283
   10      -0.001928761510     -0.002190887945     -0.009752554283
   11       0.001928761510      0.002190887945      0.009752554283
   12       0.001928761510      0.002190887945     -0.009752554283
   13      -0.008712880827     -0.008604086564     -0.006056678140
   14      -0.008712880827     -0.008604086564      0.006056678140
   15       0.008712880827      0.008604086564     -0.006056678140
   16       0.008712880827      0.008604086564      0.006056678140
   17       0.010401603680     -0.038159139457      0.000000000000
   18       0.019527390539      0.037152440159      0.000000000000
   19      -0.010401603680      0.038159139457      0.000000000000
   20      -0.019527390539     -0.037152440159      0.000000000000
   21       0.031160464336     -0.068558972588     -0.073116706109
   22       0.031160464336     -0.068558972588      0.073116706109
   23      -0.031160464336      0.068558972588     -0.073116706109
   24      -0.031160464336      0.068558972588      0.073116706109
   25       0.011483927361      0.019670011357      0.000000000000
   26      -0.018111268586      0.024500480007      0.000000000000
   27      -0.011483927361     -0.019670011357      0.000000000000
   28       0.018111268586     -0.024500480007     -0.000000000000
   29      -0.036921470786     -0.036704189675     -0.078469323244
   30      -0.036921470786     -0.036704189675      0.078469323244
   31       0.036921470786      0.036704189675     -0.078469323244
   32       0.036921470786      0.036704189675      0.078469323244
   33       0.011390605902      0.003375033543      0.000000000000
   34       0.020996933804     -0.008770657027      0.000000000000
   35      -0.011390605902     -0.003375033543      0.000000000000
   36      -0.020996933804      0.008770657027     -0.000000000000

 cartesian coordinates (angstrom) at end:
    1      3.97949998263324     0.00000000000000     1.59199999309215
    2      3.97949998263324     0.00000000000000     4.77599997927645
    3     -0.00000000000000     3.97949998263324     0.00075719328465
    4     -0.00000000000000     3.97949998263324     3.18324279289965
    5      1.01432477874233     6.56905718071617     1.59199999309215
    6      1.01116218494483     6.56635662198875     4.77599997927645
    7      6.94467518652415     1.38994278455031     1.59199999309215
    8      6.94783778032165     1.39264334327773     4.77599997927645
    9      1.39275892148752     1.01309849184318     0.00183013594434
   10      1.39275892148752     1.01309849184318     3.18216985023996
   11      6.56624104377896     6.94590147342330     0.00183013594434
   12      6.56624104377896     6.94590147342330     3.18216985023996
   13      2.79948326064820     5.43138040848886     0.00135569381808
   14      2.79948326064820     5.43138040848886     3.18264429236622
   15      5.15951670461828     2.52761955677763     0.00135569381808
   16      5.15951670461828     2.52761955677763     3.18264429236622
   17      2.52941608732064     2.79433175175848     1.59199999309215
   18      2.52916771677797     2.79792412439100     4.77599997927645
   19      5.42958387794585     5.16466821350800     1.59199999309215
   20      5.42983224848851     5.16107584087548     4.77599997927645
   21      4.65048160752364     5.81731357074507    -0.00045713082027
   22      4.65048160752364     5.81731357074507     3.18445711700457
   23      3.30851835774284     2.14168639452141    -0.00045713082027
   24      3.30851835774284     2.14168639452141     3.18445711700457
   25      2.15049891804090     4.64886929320818     1.59199999309215
   26      2.15221597836721     4.65100792743644     4.77599997927645
   27      5.80850104722558     3.31013067205831     1.59199999309215
   28      5.80678398689927     3.30799203783004     4.77599997927645
   29      2.00972071641717     7.05960159322171    -0.00052637374477
   30      2.00972071641717     7.05960159322171     3.18452635992907
   31      5.94927924884931     0.89939837204478    -0.00052637374477
   32      5.94927924884931     0.89939837204478     3.18452635992907
   33      0.89776047272802     2.01434579317218     1.59199999309215
   34      0.89722774422845     2.01753790769645     4.77599997927645
   35      7.06123949253846     5.94465417209430     1.59199999309215
   36      7.06177222103803     5.94146205757003     4.77599997927645

 cartesian forces (hartree/bohr) at end:
    1     -0.00000000000000    -0.00000000000000    -0.00000000000000
    2     -0.00000000000000    -0.00000000000000    -0.00000000000000
    3     -0.00000000000000    -0.00000000000000     0.00055636170977
    4     -0.00000000000000    -0.00000000000000    -0.00055636170977
    5     -0.00046441826874    -0.00096340359627    -0.00000000000000
    6      0.00006691958372    -0.00006875619037    -0.00000000000000
    7      0.00046441826874     0.00096340359627    -0.00000000000000
    8     -0.00006691958372     0.00006875619037     0.00000000000000
    9      0.00012823930596     0.00014566754264    -0.00081043176424
   10      0.00012823930596     0.00014566754264     0.00081043176424
   11     -0.00012823930596    -0.00014566754264    -0.00081043176424
   12     -0.00012823930596    -0.00014566754264     0.00081043176424
   13      0.00057930116531     0.00057206766306     0.00050330653979
   14      0.00057930116531     0.00057206766306    -0.00050330653979
   15     -0.00057930116531    -0.00057206766306     0.00050330653979
   16     -0.00057930116531    -0.00057206766306    -0.00050330653979
   17     -0.00069158080464     0.00253712111925    -0.00000000000000
   18     -0.00129833522574    -0.00247018779515    -0.00000000000000
   19      0.00069158080464    -0.00253712111925    -0.00000000000000
   20      0.00129833522574     0.00247018779515    -0.00000000000000
   21     -0.00207179389465     0.00455834224101     0.00607595706786
   22     -0.00207179389465     0.00455834224101    -0.00607595706786
   23      0.00207179389465    -0.00455834224101     0.00607595706786
   24      0.00207179389465    -0.00455834224101    -0.00607595706786
   25     -0.00076354223535    -0.00130781778466    -0.00000000000000
   26      0.00120418024827    -0.00162898551018    -0.00000000000000
   27      0.00076354223535     0.00130781778466    -0.00000000000000
   28     -0.00120418024827     0.00162898551018     0.00000000000000
   29      0.00245483112616     0.00244038456095     0.00652075653496
   30      0.00245483112616     0.00244038456095    -0.00652075653496
   31     -0.00245483112616    -0.00244038456095     0.00652075653496
   32     -0.00245483112616    -0.00244038456095    -0.00652075653496
   33     -0.00075733748731    -0.00022439889895    -0.00000000000000
   34     -0.00139604207411     0.00058314258366    -0.00000000000000
   35      0.00075733748731     0.00022439889895    -0.00000000000000
   36      0.00139604207411    -0.00058314258366     0.00000000000000
 frms,max,avg= 2.2013319E-03 6.5207565E-03   0.000E+00  0.000E+00  0.000E+00 h/b

 cartesian forces (eV/Angstrom) at end:
    1     -0.00000000000000    -0.00000000000000    -0.00000000000000
    2     -0.00000000000000    -0.00000000000000    -0.00000000000000
    3     -0.00000000000000    -0.00000000000000     0.02860926699752
    4     -0.00000000000000    -0.00000000000000    -0.02860926699752
    5     -0.02388134556297    -0.04954020060723    -0.00000000000000
    6      0.00344114306293    -0.00353558516584    -0.00000000000000
    7      0.02388134556297     0.04954020060723    -0.00000000000000
    8     -0.00344114306293     0.00353558516584     0.00000000000000
    9      0.00659432969484     0.00749052558291    -0.04167407339352
   10      0.00659432969484     0.00749052558291     0.04167407339352
   11     -0.00659432969484    -0.00749052558291    -0.04167407339352
   12     -0.00659432969484    -0.00749052558291     0.04167407339352
   13      0.02978886112992     0.02941689952032     0.02588106069391
   14      0.02978886112992     0.02941689952032    -0.02588106069391
   15     -0.02978886112992    -0.02941689952032     0.02588106069391
   16     -0.02978886112992    -0.02941689952032    -0.02588106069391
   17     -0.03556251183850     0.13046400252065    -0.00000000000000
   18     -0.06676307602291    -0.12702215289893    -0.00000000000000
   19      0.03556251183850    -0.13046400252065    -0.00000000000000
   20      0.06676307602291     0.12702215289893    -0.00000000000000
   21     -0.10653591657220     0.23439936276906     0.31243824829686
   22     -0.10653591657220     0.23439936276906    -0.31243824829686
   23      0.10653591657220    -0.23439936276906     0.31243824829686
   24      0.10653591657220    -0.23439936276906    -0.31243824829686
   25     -0.03926291707623    -0.06725068876656    -0.00000000000000
   26      0.06192143282118    -0.08376579584393    -0.00000000000000
   27      0.03926291707623     0.06725068876656    -0.00000000000000
   28     -0.06192143282118     0.08376579584393     0.00000000000000
   29      0.12623248129553     0.12548960910668     0.33531075460157
   30      0.12623248129553     0.12548960910668    -0.33531075460157
   31     -0.12623248129553    -0.12548960910668     0.33531075460157
   32     -0.12623248129553    -0.12548960910668    -0.33531075460157
   33     -0.03894385613052    -0.01153905436195    -0.00000000000000
   34     -0.07178736375413     0.02998639478715    -0.00000000000000
   35      0.03894385613052     0.01153905436195    -0.00000000000000
   36      0.07178736375413    -0.02998639478715     0.00000000000000
 frms,max,avg= 1.1319703E-01 3.3531075E-01   0.000E+00  0.000E+00  0.000E+00 e/A
 length scales=  1.000000000000  1.000000000000  1.000000000000 bohr
              =  0.529177208590  0.529177208590  0.529177208590 angstroms
 prteigrs : about to open file outdata/out_EIG
 Fermi (or HOMO) energy (hartree) =   0.26306   Average Vxc (hartree)=  -0.38969
 Eigenvalues (hartree) for nkpt=   1  k points, SPIN UP:
 kpt#   1, nband=115, wtk=  1.00000, kpt=  0.0000  0.0000  0.0000 (reduced coord)
  -1.39500   -1.39469   -1.39317   -1.39281   -1.39277   -1.39261   -1.39224   -1.39198
  -1.35683   -1.04854   -1.04223   -1.02278   -0.56985   -0.56893   -0.56558   -0.47074
  -0.46527   -0.46073   -0.45933   -0.45596   -0.45445   -0.45214   -0.45103   -0.40931
  -0.40555   -0.38948   -0.38546   -0.38426   -0.37344   -0.36641   -0.36599   -0.36174
  -0.35348   -0.31295   -0.30948   -0.30920   -0.30890   -0.30622   -0.30517   -0.30284
  -0.03239   -0.03156   -0.02950   -0.02565   -0.01820   -0.01488   -0.01193   -0.01149
  -0.00161   -0.00135    0.00276    0.01939    0.02011    0.02455    0.02733    0.02824
   0.03862    0.04448    0.04593    0.05258    0.06596    0.06769    0.06816    0.07058
   0.07154    0.07662    0.07869    0.08787    0.09002    0.09512    0.09839    0.10168
   0.10300    0.10445    0.11450    0.11540    0.11676    0.11930    0.11976    0.12312
   0.12470    0.12700    0.13315    0.13412    0.13577    0.13813    0.13851    0.13914
   0.13939    0.13944    0.15367    0.16150    0.16307    0.16495    0.20238    0.26306
   0.28365    0.28865    0.31044    0.31989    0.33871    0.35842    0.36345    0.38121
   0.38184    0.38611    0.38737    0.38959    0.39298    0.39566    0.39913    0.41070
   0.41411    0.42099    0.42116
 Eigenvalues (hartree) for nkpt=   1  k points, SPIN DOWN:
 kpt#   1, nband=115, wtk=  1.00000, kpt=  0.0000  0.0000  0.0000 (reduced coord)
  -1.39504   -1.39472   -1.39314   -1.39279   -1.39275   -1.39259   -1.39222   -1.39197
  -1.25619   -1.04819   -1.04191   -1.02004   -0.50497   -0.49634   -0.49525   -0.47032
  -0.46496   -0.46093   -0.45593   -0.45488   -0.45110   -0.44865   -0.44284   -0.40888
  -0.40490   -0.38916   -0.38516   -0.38153   -0.37308   -0.36537   -0.35959   -0.35808
  -0.35356   -0.31154   -0.30997   -0.30929   -0.30893   -0.30610   -0.30495   -0.30278
  -0.02494   -0.01672   -0.01509   -0.01142   -0.01120    0.01816    0.01913    0.02595
   0.02747    0.02772    0.03905    0.04566    0.04663    0.05482    0.06742    0.06772
   0.06846    0.07100    0.07182    0.07704    0.07904    0.08901    0.08981    0.09469
   0.09940    0.10215    0.10317    0.10462    0.11505    0.11508    0.11693    0.11995
   0.12157    0.12276    0.12456    0.12710    0.13291    0.13421    0.13740    0.13848
   0.13881    0.13925    0.13946    0.13980    0.15332    0.16158    0.16291    0.16582
   0.28879    0.29231    0.29667    0.31977    0.32231    0.32861    0.34173    0.36464
   0.36888    0.36931    0.37123    0.37424    0.37549    0.38039    0.38373    0.38582
   0.39246    0.39519    0.39617    0.40067    0.40121    0.40386    0.40658    0.41589
   0.42014    0.42222    0.42240

--- !EnergyTerms
iteration_state     : {dtset: 1, }
comment             : Components of total free energy in Hartree
kinetic             :  1.68843674474341E+02
hartree             :  1.12078374959646E+02
xc                  : -8.64701168820060E+01
Ewald energy        : -3.48525150113061E+02
psp_core            :  1.49222053156366E+01
local_psp           : -3.25829420627781E+02
spherical_terms     : -1.04445721434202E+01
total_energy        : -4.75425005016644E+02
total_energy_eV     : -1.29369723081503E+04
...


--- !EnergyTermsDC
iteration_state     : {dtset: 1, }
comment             : '"Double-counting" decomposition of free energy'
band_energy         : -4.51429796744270E+01
Ewald energy        : -3.48525150113061E+02
psp_core            :  1.49222053156366E+01
xc_dc               : -9.67423330287562E+01
spherical_terms     :  6.32582198897613E-02
total_energy_dc     : -4.75424999280718E+02
total_energy_dc_eV  : -1.29369721520678E+04
...


 Cartesian components of stress tensor (hartree/bohr^3)
  sigma(1 1)=  2.66697057E-03  sigma(3 2)=  0.00000000E+00
  sigma(2 2)=  2.69195257E-03  sigma(3 1)=  0.00000000E+00
  sigma(3 3)=  2.50050021E-03  sigma(2 1)= -7.62919595E-06

-Cartesian components of stress tensor (GPa)         [Pressure= -7.7077E+01 GPa]
- sigma(1 1)=  7.84649701E+01  sigma(3 2)=  0.00000000E+00
- sigma(2 2)=  7.91999656E+01  sigma(3 1)=  0.00000000E+00
- sigma(3 3)=  7.35672438E+01  sigma(2 1)= -2.24458656E-01

== END DATASET(S) ==============================================================
================================================================================
  
 -outvars: echo values of variables after computation  --------
-          iomode           1
            acell      1.0000000000E+00  1.0000000000E+00  1.0000000000E+00 Bohr
              amu      1.51965000E+02  8.76200000E+01  6.94100000E+00
                       2.69815390E+01  1.40067400E+01  1.59994000E+01
          chkprim           0
      chksymbreak           0
     densfor_pred           6
           diemac      5.00000000E+00
             ecut      1.00000000E+01 Hartree
           etotal     -4.7542499928E+02
            fcart     -2.4093381611E-20 -1.2046690805E-20 -0.0000000000E+00
                      -2.4093381611E-20 -1.2046690805E-20 -0.0000000000E+00
                      -2.4093381609E-20 -1.2046690792E-20  5.5636170977E-04
                      -2.4093381611E-20 -1.2046690819E-20 -5.5636170977E-04
                      -4.6441826874E-04 -9.6340359627E-04 -0.0000000000E+00
                       6.6919583722E-05 -6.8756190366E-05 -0.0000000000E+00
                       4.6441826874E-04  9.6340359627E-04 -0.0000000000E+00
                      -6.6919583722E-05  6.8756190366E-05  3.5661319755E-29
                       1.2823930596E-04  1.4566754264E-04 -8.1043176424E-04
                       1.2823930596E-04  1.4566754264E-04  8.1043176424E-04
                      -1.2823930596E-04 -1.4566754264E-04 -8.1043176424E-04
                      -1.2823930596E-04 -1.4566754264E-04  8.1043176424E-04
                       5.7930116531E-04  5.7206766306E-04  5.0330653979E-04
                       5.7930116531E-04  5.7206766306E-04 -5.0330653979E-04
                      -5.7930116531E-04 -5.7206766306E-04  5.0330653979E-04
                      -5.7930116531E-04 -5.7206766306E-04 -5.0330653979E-04
                      -6.9158080464E-04  2.5371211193E-03 -0.0000000000E+00
                      -1.2983352257E-03 -2.4701877952E-03 -0.0000000000E+00
                       6.9158080464E-04 -2.5371211193E-03 -0.0000000000E+00
                       1.2983352257E-03  2.4701877952E-03 -0.0000000000E+00
                      -2.0717938947E-03  4.5583422410E-03  6.0759570679E-03
                      -2.0717938947E-03  4.5583422410E-03 -6.0759570679E-03
                       2.0717938947E-03 -4.5583422410E-03  6.0759570679E-03
                       2.0717938947E-03 -4.5583422410E-03 -6.0759570679E-03
                      -7.6354223535E-04 -1.3078177847E-03 -0.0000000000E+00
                       1.2041802483E-03 -1.6289855102E-03 -1.0740350420E-27
                       7.6354223535E-04  1.3078177847E-03 -0.0000000000E+00
                      -1.2041802483E-03  1.6289855102E-03  1.0740350420E-27
                       2.4548311262E-03  2.4403845610E-03  6.5207565350E-03
                       2.4548311262E-03  2.4403845610E-03 -6.5207565350E-03
                      -2.4548311262E-03 -2.4403845610E-03  6.5207565350E-03
                      -2.4548311262E-03 -2.4403845610E-03 -6.5207565350E-03
                      -7.5733748731E-04 -2.2439889895E-04 -0.0000000000E+00
                      -1.3960420741E-03  5.8314258366E-04 -1.3425438025E-28
                       7.5733748731E-04  2.2439889895E-04 -0.0000000000E+00
                       1.3960420741E-03 -5.8314258366E-04  1.3425438025E-28
-          fftalg         112
           irdden           1
           istwfk        2
              ixc       -1012
            jpawu      2.57245278E-02  0.00000000E+00  0.00000000E+00  0.00000000E+00  0.00000000E+00  0.00000000E+00 Hartree
         kptrlatt        1    0    0      0    1    0      0    0    1
          kptrlen      1.20337760E+01
            lpawu           3      -1      -1      -1      -1      -1
P           mkmem           1
            natom          36
            nband         115     115
            ngfft          45      45      36
          ngfftdg          64      64      50
             nkpt           1
-        np_spkpt           2
           nspden           2
           nsppol           2
            nstep         100
             nsym           4
           ntypat           6
              occ      1.000000  1.000000  1.000000  1.000000  1.000000  1.000000
                       1.000000  1.000000  1.000000  1.000000  1.000000  1.000000
                       1.000000  1.000000  1.000000  1.000000  1.000000  1.000000
                       1.000000  1.000000  1.000000  1.000000  1.000000  1.000000
                       1.000000  1.000000  1.000000  1.000000  1.000000  1.000000
                       1.000000  1.000000  1.000000  1.000000  1.000000  1.000000
                       1.000000  1.000000  1.000000  1.000000  1.000000  1.000000
                       1.000000  1.000000  1.000000  1.000000  1.000000  1.000000
                       1.000000  1.000000  1.000000  1.000000  1.000000  1.000000
                       1.000000  1.000000  1.000000  1.000000  1.000000  1.000000
                       1.000000  1.000000  1.000000  1.000000  1.000000  1.000000
                       1.000000  1.000000  1.000000  1.000000  1.000000  1.000000
                       1.000000  1.000000  1.000000  1.000000  1.000000  1.000000
                       1.000000  1.000000  1.000000  1.000000  1.000000  1.000000
                       1.000000  1.000000  1.000000  1.000000  1.000000  1.000000
                       1.000000  1.000000  1.000000  1.000000  0.000000  1.000000
                       0.000000  0.000000  0.000000  0.000000  0.000000  0.000000
                       0.000000  0.000000  0.000000  0.000000  0.000000  0.000000
                       0.000000  0.000000  0.000000  0.000000  0.000000  0.000000
                       0.000000
                       1.000000  1.000000  1.000000  1.000000  1.000000  1.000000
                       1.000000  1.000000  1.000000  1.000000  1.000000  1.000000
                       1.000000  1.000000  1.000000  1.000000  1.000000  1.000000
                       1.000000  1.000000  1.000000  1.000000  1.000000  1.000000
                       1.000000  1.000000  1.000000  1.000000  1.000000  1.000000
                       1.000000  1.000000  1.000000  1.000000  1.000000  1.000000
                       1.000000  1.000000  1.000000  1.000000  1.000000  1.000000
                       1.000000  1.000000  1.000000  1.000000  1.000000  1.000000
                       1.000000  1.000000  1.000000  1.000000  1.000000  1.000000
                       1.000000  1.000000  1.000000  1.000000  1.000000  1.000000
                       1.000000  1.000000  1.000000  1.000000  1.000000  1.000000
                       1.000000  1.000000  1.000000  1.000000  1.000000  1.000000
                       1.000000  1.000000  1.000000  1.000000  1.000000  1.000000
                       1.000000  1.000000  1.000000  1.000000  1.000000  1.000000
                       1.000000  1.000000  1.000000  1.000000  0.000000  0.000000
                       0.000000  0.000000  0.000000  0.000000  0.000000  0.000000
                       0.000000  0.000000  0.000000  0.000000  0.000000  0.000000
                       0.000000  0.000000  0.000000  0.000000  0.000000  0.000000
                       0.000000  0.000000  0.000000  0.000000  0.000000  0.000000
                       0.000000
           occopt           2
        paral_kgb           1
        pawecutdg      2.00000000E+01 Hartree
            prtwf          -1
            rprim      1.5040330226E+01  0.0000000000E+00  0.0000000000E+00
                       0.0000000000E+00  1.5040330226E+01  0.0000000000E+00
                       0.0000000000E+00  0.0000000000E+00  1.2033775962E+01
          spgroup          10
           spinat      0.0000000000E+00  0.0000000000E+00  7.0000000000E+00
                       0.0000000000E+00  0.0000000000E+00  0.0000000000E+00
                       0.0000000000E+00  0.0000000000E+00  0.0000000000E+00
                       0.0000000000E+00  0.0000000000E+00  0.0000000000E+00
                       0.0000000000E+00  0.0000000000E+00  0.0000000000E+00
                       0.0000000000E+00  0.0000000000E+00  0.0000000000E+00
                       0.0000000000E+00  0.0000000000E+00  0.0000000000E+00
                       0.0000000000E+00  0.0000000000E+00  0.0000000000E+00
                       0.0000000000E+00  0.0000000000E+00  0.0000000000E+00
                       0.0000000000E+00  0.0000000000E+00  0.0000000000E+00
                       0.0000000000E+00  0.0000000000E+00  0.0000000000E+00
                       0.0000000000E+00  0.0000000000E+00  0.0000000000E+00
                       0.0000000000E+00  0.0000000000E+00  0.0000000000E+00
                       0.0000000000E+00  0.0000000000E+00  0.0000000000E+00
                       0.0000000000E+00  0.0000000000E+00  0.0000000000E+00
                       0.0000000000E+00  0.0000000000E+00  0.0000000000E+00
                       0.0000000000E+00  0.0000000000E+00  0.0000000000E+00
                       0.0000000000E+00  0.0000000000E+00  0.0000000000E+00
                       0.0000000000E+00  0.0000000000E+00  0.0000000000E+00
                       0.0000000000E+00  0.0000000000E+00  0.0000000000E+00
                       0.0000000000E+00  0.0000000000E+00  0.0000000000E+00
                       0.0000000000E+00  0.0000000000E+00  0.0000000000E+00
                       0.0000000000E+00  0.0000000000E+00  0.0000000000E+00
                       0.0000000000E+00  0.0000000000E+00  0.0000000000E+00
                       0.0000000000E+00  0.0000000000E+00  0.0000000000E+00
                       0.0000000000E+00  0.0000000000E+00  0.0000000000E+00
                       0.0000000000E+00  0.0000000000E+00  0.0000000000E+00
                       0.0000000000E+00  0.0000000000E+00  0.0000000000E+00
                       0.0000000000E+00  0.0000000000E+00  0.0000000000E+00
                       0.0000000000E+00  0.0000000000E+00  0.0000000000E+00
                       0.0000000000E+00  0.0000000000E+00  0.0000000000E+00
                       0.0000000000E+00  0.0000000000E+00  0.0000000000E+00
                       0.0000000000E+00  0.0000000000E+00  0.0000000000E+00
                       0.0000000000E+00  0.0000000000E+00  0.0000000000E+00
                       0.0000000000E+00  0.0000000000E+00  0.0000000000E+00
                       0.0000000000E+00  0.0000000000E+00  0.0000000000E+00
           strten      2.6669705747E-03  2.6919525694E-03  2.5005002129E-03
                       0.0000000000E+00  0.0000000000E+00 -7.6291959465E-06
           symrel      1  0  0   0  1  0   0  0  1      -1  0  0   0 -1  0   0  0 -1
                      -1  0  0   0 -1  0   0  0  1       1  0  0   0  1  0   0  0 -1
            tnons      0.0000000  0.0000000  0.0000000    -0.0000000  0.0000000  0.5000000
                      -0.0000000  0.0000000  0.0000000     0.0000000  0.0000000  0.5000000
           toldfe      1.00000000E-06 Hartree
            typat      1  2  2  2  3  3  3  3  3  3  3  3  4  4  4  4  4  4  4  4
                       5  5  5  5  5  5  5  5  6  6  6  6  6  6  6  6
            upawu      2.57245278E-01  0.00000000E+00  0.00000000E+00  0.00000000E+00  0.00000000E+00  0.00000000E+00 Hartree
          usepawu           1
           useylm           1
         wfoptalg         114
           xangst      3.9794999826E+00  0.0000000000E+00  1.5919999931E+00
                       3.9794999826E+00  0.0000000000E+00  4.7759999793E+00
                      -4.4181325072E-16  3.9794999826E+00  7.5719328465E-04
                      -4.4181325072E-16  3.9794999826E+00  3.1832427929E+00
                       1.0143247787E+00  6.5690571807E+00  1.5919999931E+00
                       1.0111621849E+00  6.5663566220E+00  4.7759999793E+00
                       6.9446751865E+00  1.3899427846E+00  1.5919999931E+00
                       6.9478377803E+00  1.3926433433E+00  4.7759999793E+00
                       1.3927589215E+00  1.0130984918E+00  1.8301359443E-03
                       1.3927589215E+00  1.0130984918E+00  3.1821698502E+00
                       6.5662410438E+00  6.9459014734E+00  1.8301359443E-03
                       6.5662410438E+00  6.9459014734E+00  3.1821698502E+00
                       2.7994832606E+00  5.4313804085E+00  1.3556938181E-03
                       2.7994832606E+00  5.4313804085E+00  3.1826442924E+00
                       5.1595167046E+00  2.5276195568E+00  1.3556938181E-03
                       5.1595167046E+00  2.5276195568E+00  3.1826442924E+00
                       2.5294160873E+00  2.7943317518E+00  1.5919999931E+00
                       2.5291677168E+00  2.7979241244E+00  4.7759999793E+00
                       5.4295838779E+00  5.1646682135E+00  1.5919999931E+00
                       5.4298322485E+00  5.1610758409E+00  4.7759999793E+00
                       4.6504816075E+00  5.8173135707E+00 -4.5713082027E-04
                       4.6504816075E+00  5.8173135707E+00  3.1844571170E+00
                       3.3085183577E+00  2.1416863945E+00 -4.5713082027E-04
                       3.3085183577E+00  2.1416863945E+00  3.1844571170E+00
                       2.1504989180E+00  4.6488692932E+00  1.5919999931E+00
                       2.1522159784E+00  4.6510079274E+00  4.7759999793E+00
                       5.8085010472E+00  3.3101306721E+00  1.5919999931E+00
                       5.8067839869E+00  3.3079920378E+00  4.7759999793E+00
                       2.0097207164E+00  7.0596015932E+00 -5.2637374477E-04
                       2.0097207164E+00  7.0596015932E+00  3.1845263599E+00
                       5.9492792488E+00  8.9939837204E-01 -5.2637374477E-04
                       5.9492792488E+00  8.9939837204E-01  3.1845263599E+00
                       8.9776047273E-01  2.0143457932E+00  1.5919999931E+00
                       8.9722774423E-01  2.0175379077E+00  4.7759999793E+00
                       7.0612394925E+00  5.9446541721E+00  1.5919999931E+00
                       7.0617722210E+00  5.9414620576E+00  4.7759999793E+00
            xcart      7.5201651130E+00  0.0000000000E+00  3.0084439905E+00
                       7.5201651130E+00  0.0000000000E+00  9.0253319715E+00
                      -8.3490604574E-16  7.5201651130E+00  1.4308879376E-03
                      -8.3490604574E-16  7.5201651130E+00  6.0154570931E+00
                       1.9167960416E+00  1.2413719023E+01  3.0084439905E+00
                       1.9108196055E+00  1.2408615706E+01  9.0253319715E+00
                       1.3123534184E+01  2.6266112032E+00  3.0084439905E+00
                       1.3129510621E+01  2.6317145196E+00  9.0253319715E+00
                       2.6319329307E+00  1.9144786952E+00  3.4584557208E-03
                       2.6319329307E+00  1.9144786952E+00  6.0134295253E+00
                       1.2408397295E+01  1.3125851531E+01  3.4584557208E-03
                       1.2408397295E+01  1.3125851531E+01  6.0134295253E+00
                       5.2902566762E+00  1.0263821496E+01  2.5618900362E-03
                       5.2902566762E+00  1.0263821496E+01  6.0143260910E+00
                       9.7500735498E+00  4.7765087304E+00  2.5618900362E-03
                       9.7500735498E+00  4.7765087304E+00  6.0143260910E+00
                       4.7799036812E+00  5.2805217353E+00  3.0084439905E+00
                       4.7794343288E+00  5.2873103357E+00  9.0253319715E+00
                       1.0260426545E+01  9.7598084907E+00  3.0084439905E+00
                       1.0260895897E+01  9.7530198903E+00  9.0253319715E+00
                       8.7881366242E+00  1.0993129478E+01 -8.6385205721E-04
                       8.7881366242E+00  1.0993129478E+01  6.0177518331E+00
                       6.2521936018E+00  4.0472007482E+00 -8.6385205721E-04
                       6.2521936018E+00  4.0472007482E+00  6.0177518331E+00
                       4.0638540042E+00  8.7850897917E+00  3.0084439905E+00
                       4.0670987779E+00  8.7891312247E+00  9.0253319715E+00
                       1.0976476222E+01  6.2552404343E+00  3.0084439905E+00
                       1.0973231448E+01  6.2511990013E+00  9.0253319715E+00
                       3.7978217576E+00  1.3340713618E+01 -9.9470222116E-04
                       3.7978217576E+00  1.3340713618E+01  6.0178826832E+00
                       1.1242508468E+01  1.6996166075E+00 -9.9470222116E-04
                       1.1242508468E+01  1.6996166075E+00  6.0178826832E+00
                       1.6965214264E+00  3.8065618860E+00  3.0084439905E+00
                       1.6955147154E+00  3.8125941083E+00  9.0253319715E+00
                       1.3343808800E+01  1.1233768340E+01  3.0084439905E+00
                       1.3344815511E+01  1.1227736118E+01  9.0253319715E+00
             xred      5.0000000000E-01  0.0000000000E+00  2.5000000000E-01
                       5.0000000000E-01  0.0000000000E+00  7.5000000000E-01
                      -5.5511151231E-17  5.0000000000E-01  1.1890598115E-04
                      -5.5511151231E-17  5.0000000000E-01  4.9988109402E-01
                       1.2744374710E-01  8.2536213210E-01  2.5000000000E-01
                       1.2704638640E-01  8.2502282330E-01  7.5000000000E-01
                       8.7255625290E-01  1.7463786790E-01  2.5000000000E-01
                       8.7295361360E-01  1.7497717670E-01  7.5000000000E-01
                       1.7499169840E-01  1.2728967160E-01  2.8739572115E-04
                       1.7499169840E-01  1.2728967160E-01  4.9971260428E-01
                       8.2500830160E-01  8.7271032840E-01  2.8739572115E-04
                       8.2500830160E-01  8.7271032840E-01  4.9971260428E-01
                       3.5173806670E-01  6.8241995630E-01  2.1289161808E-04
                       3.5173806670E-01  6.8241995630E-01  4.9978710838E-01
                       6.4826193330E-01  3.1758004370E-01  2.1289161808E-04
                       6.4826193330E-01  3.1758004370E-01  4.9978710838E-01
                       3.1780576685E-01  3.5109081090E-01  2.5000000000E-01
                       3.1777456060E-01  3.5154217070E-01  7.5000000000E-01
                       6.8219423315E-01  6.4890918910E-01  2.5000000000E-01
                       6.8222543940E-01  6.4845782930E-01  7.5000000000E-01
                       5.8430476540E-01  7.3091011385E-01 -7.1785619073E-05
                       5.8430476540E-01  7.3091011385E-01  5.0007178562E-01
                       4.1569523460E-01  2.6908988615E-01 -7.1785619073E-05
                       4.1569523460E-01  2.6908988615E-01  5.0007178562E-01
                       2.7019712620E-01  5.8410218790E-01  2.5000000000E-01
                       2.7041286440E-01  5.8437089430E-01  7.5000000000E-01
                       7.2980287380E-01  4.1589781210E-01  2.5000000000E-01
                       7.2958713560E-01  4.1562910570E-01  7.5000000000E-01
                       2.5250920030E-01  8.8699605780E-01 -8.2659193947E-05
                       2.5250920030E-01  8.8699605780E-01  5.0008265919E-01
                       7.4749079970E-01  1.1300394220E-01 -8.2659193947E-05
                       7.4749079970E-01  1.1300394220E-01  5.0008265919E-01
                       1.1279815010E-01  2.5309031310E-01  2.5000000000E-01
                       1.1273121600E-01  2.5349138290E-01  7.5000000000E-01
                       8.8720184990E-01  7.4690968690E-01  2.5000000000E-01
                       8.8726878400E-01  7.4650861710E-01  7.5000000000E-01
            znucl       63.00000   38.00000    3.00000   13.00000    7.00000    8.00000

================================================================================


- Timing analysis has been suppressed with timopt=0



================================================================================

 Suggested references for the acknowledgment of ABINIT usage.

 The users of ABINIT have little formal obligations with respect to the ABINIT group
 (those specified in the GNU General Public License, http://www.gnu.org/copyleft/gpl.txt).
 However, it is common practice in the scientific literature,
 to acknowledge the efforts of people that have made the research possible.
 In this spirit, please find below suggested citations of work written by ABINIT developers,
 corresponding to implementations inside of ABINIT that you have used in the present run.
 Note also that it will be of great value to readers of publications presenting these results,
 to read papers enabling them to understand the theoretical formalism and details
 of the ABINIT implementation.
 For information on why they are suggested, see also https://docs.abinit.org/theory/acknowledgments.
-
- [1] Gamma and beta cerium: DFT+U calculations of ground-state parameters.
- B. Amadon, F. Jollet and M. Torrent, Phys. Rev. B 77, 155104 (2008).
- Comment: DFT+U calculations, usepawu/=0. Strong suggestion to cite this paper.
- DOI and bibtex: see https://docs.abinit.org/theory/bibliography/#amadon2008a
-
- [2] Implementation of the Projector Augmented-Wave Method in the ABINIT code.
- M. Torrent, F. Jollet, F. Bottin, G. Zerah, and X. Gonze Comput. Mat. Science 42, 337, (2008).
- Comment: PAW calculations. Strong suggestion to cite this paper.
- DOI and bibtex: see https://docs.abinit.org/theory/bibliography/#torrent2008
-
- [3] Libxc: A library of exchange and correlation functionals for density functional theory.
- M.A.L. Marques, M.J.T. Oliveira, T. Burnus, Computer Physics Communications 183, 2227 (2012).
- Comment: to be cited when LibXC is used (negative value of ixc)
- Strong suggestion to cite this paper.
- DOI and bibtex: see https://docs.abinit.org/theory/bibliography/#marques2012
-
- [4] Large scale ab initio calculations based on three levels of parallelization
- F. Bottin, S. Leroux, A. Knyazev, G. Zerah, Comput. Mat. Science 42, 329, (2008).
- Comment: in case LOBPCG algorithm is used (wfoptalg=4/14/114).
- Strong suggestion to cite this paper in your publications.
- This paper is also available at http://www.arxiv.org/abs/0707.3405
- DOI and bibtex: see https://docs.abinit.org/theory/bibliography/#bottin2008
-
- [5] The Abinit project: Impact, environment and recent developments.
- Computer Phys. Comm. 248, 107042 (2020).
- X.Gonze, B. Amadon, G. Antonius, F.Arnardi, L.Baguet, J.-M.Beuken,
- J.Bieder, F.Bottin, J.Bouchet, E.Bousquet, N.Brouwer, F.Bruneval,
- G.Brunin, T.Cavignac, J.-B. Charraud, Wei Chen, M.Cote, S.Cottenier,
- J.Denier, G.Geneste, Ph.Ghosez, M.Giantomassi, Y.Gillet, O.Gingras,
- D.R.Hamann, G.Hautier, Xu He, N.Helbig, N.Holzwarth, Y.Jia, F.Jollet,
- W.Lafargue-Dit-Hauret, K.Lejaeghere, M.A.L.Marques, A.Martin, C.Martins,
- H.P.C. Miranda, F.Naccarato, K. Persson, G.Petretto, V.Planes, Y.Pouillon,
- S.Prokhorenko, F.Ricci, G.-M.Rignanese, A.H.Romero, M.M.Schmitt, M.Torrent,
- M.J.van Setten, B.Van Troeye, M.J.Verstraete, G.Zerah and J.W.Zwanzig
- Comment: the fifth generic paper describing the ABINIT project.
- Note that a version of this paper, that is not formatted for Computer Phys. Comm. 
- is available at https://www.abinit.org/sites/default/files/ABINIT20.pdf .
- The licence allows the authors to put it on the Web.
- DOI and bibtex: see https://docs.abinit.org/theory/bibliography/#gonze2020
-
- [6] ABINIT: Overview, and focus on selected capabilities
- J. Chem. Phys. 152, 124102 (2020).
- A. Romero, D.C. Allan, B. Amadon, G. Antonius, T. Applencourt, L.Baguet,
- J.Bieder, F.Bottin, J.Bouchet, E.Bousquet, F.Bruneval,
- G.Brunin, D.Caliste, M.Cote,
- J.Denier, C. Dreyer, Ph.Ghosez, M.Giantomassi, Y.Gillet, O.Gingras,
- D.R.Hamann, G.Hautier, F.Jollet, G. Jomard,
- A.Martin, 
- H.P.C. Miranda, F.Naccarato, G.Petretto, N.A. Pike, V.Planes,
- S.Prokhorenko, T. Rangel, F.Ricci, G.-M.Rignanese, M.Royo, M.Stengel, M.Torrent,
- M.J.van Setten, B.Van Troeye, M.J.Verstraete, J.Wiktor, J.W.Zwanziger, and X.Gonze.
- Comment: a global overview of ABINIT, with focus on selected capabilities .
- Note that a version of this paper, that is not formatted for J. Chem. Phys 
- is available at https://www.abinit.org/sites/default/files/ABINIT20_JPC.pdf .
- The licence allows the authors to put it on the Web.
- DOI and bibtex: see https://docs.abinit.org/theory/bibliography/#romero2020
-
- [7] Recent developments in the ABINIT software package.
- Computer Phys. Comm. 205, 106 (2016).
- X.Gonze, F.Jollet, F.Abreu Araujo, D.Adams, B.Amadon, T.Applencourt,
- C.Audouze, J.-M.Beuken, J.Bieder, A.Bokhanchuk, E.Bousquet, F.Bruneval
- D.Caliste, M.Cote, F.Dahm, F.Da Pieve, M.Delaveau, M.Di Gennaro,
- B.Dorado, C.Espejo, G.Geneste, L.Genovese, A.Gerossier, M.Giantomassi,
- Y.Gillet, D.R.Hamann, L.He, G.Jomard, J.Laflamme Janssen, S.Le Roux,
- A.Levitt, A.Lherbier, F.Liu, I.Lukacevic, A.Martin, C.Martins,
- M.J.T.Oliveira, S.Ponce, Y.Pouillon, T.Rangel, G.-M.Rignanese,
- A.H.Romero, B.Rousseau, O.Rubel, A.A.Shukri, M.Stankovski, M.Torrent,
- M.J.Van Setten, B.Van Troeye, M.J.Verstraete, D.Waroquier, J.Wiktor,
- B.Xu, A.Zhou, J.W.Zwanziger.
- Comment: the fourth generic paper describing the ABINIT project.
- Note that a version of this paper, that is not formatted for Computer Phys. Comm. 
- is available at https://www.abinit.org/sites/default/files/ABINIT16.pdf .
- The licence allows the authors to put it on the Web.
- DOI and bibtex: see https://docs.abinit.org/theory/bibliography/#gonze2016
-
- Proc.   0 individual time (sec): cpu=        101.9  wall=        111.8

================================================================================

 Calculation completed.
.Delivered   0 WARNINGs and   0 COMMENTs to log file.
+Overall time at end (sec) : cpu=        203.9  wall=        223.6
