
.Version 9.6.2.38 of ABINIT 
.(MPI version, prepared for a aarch64_darwin21.6.0_gnu13.1 computer) 

.Copyright (C) 1998-2022 ABINIT group . 
 ABINIT comes with ABSOLUTELY NO WARRANTY.
 It is free software, and you are welcome to redistribute it
 under certain conditions (GNU General Public License,
 see ~abinit/COPYING or http://www.gnu.org/copyleft/gpl.txt).

 ABINIT is a project of the Universite Catholique de Louvain,
 Corning Inc. and other collaborators, see ~abinit/doc/developers/contributors.txt .
 Please read https://docs.abinit.org/theory/acknowledgments for suggested
 acknowledgments of the ABINIT effort.
 For more information, see https://www.abinit.org .

.Starting date : Mon 10 Jun 2024.
- ( at 13h45 )
  
- input  file    -> /Users/jbouquiaux/git/lumi_book/lumi_book/lumi/flow_deltaSCF/w0/t0/run.abi
- output file    -> /Users/jbouquiaux/git/lumi_book/lumi_book/lumi/flow_deltaSCF/w0/t0/run.abo
- root for input  files -> indata/in
- root for output files -> outdata/out

- inpspheads : Reading pseudopotential header in XML form from 
-   /Users/jbouquiaux/git/lumi_book/lumi_book/lumi/pseudos/Eu.xml
- inpspheads : Reading pseudopotential header in XML form from 
-   /Users/jbouquiaux/git/lumi_book/lumi_book/lumi/pseudos/Sr.xml
- inpspheads : Reading pseudopotential header in XML form from 
-   /Users/jbouquiaux/git/lumi_book/lumi_book/lumi/pseudos/Li.xml
- inpspheads : Reading pseudopotential header in XML form from 
-   /Users/jbouquiaux/git/lumi_book/lumi_book/lumi/pseudos/Al.xml
- inpspheads : Reading pseudopotential header in XML form from 
-   /Users/jbouquiaux/git/lumi_book/lumi_book/lumi/pseudos/N.xml
- inpspheads : Reading pseudopotential header in XML form from 
-   /Users/jbouquiaux/git/lumi_book/lumi_book/lumi/pseudos/O.xml
 Symmetries : space group P2/m (# 10); Bravais mP (primitive monocl.)
================================================================================
 Values of the parameters that define the memory need of the present run
     intxc =       0    ionmov =       2      iscf =      17    lmnmax =      32
     lnmax =       8     mgfft =      48  mpssoang =       4    mqgrid =    3180
     natom =      36  nloc_mem =       2    nspden =       2   nspinor =       1
    nsppol =       2      nsym =       4    n1xccc =       1    ntypat =       6
    occopt =       2   xclevel =       1
-    mband =         115        mffmem =           1         mkmem =           1
       mpw =        2369          nfft =       82944          nkpt =           1
Pmy_natom=        18
 PAW method is used; the additional fine FFT grid is defined by:
   mgfftf=        64    nfftf =    221184
================================================================================
P This job should need less than                     130.911 Mbytes of memory.
  Rough estimation (10% accuracy) of disk space for files :
_ WF disk file :      8.316 Mbytes ; DEN or POT disk file :      3.377 Mbytes.
================================================================================

--------------------------------------------------------------------------------
------------- Echo of variables that govern the present computation ------------
--------------------------------------------------------------------------------
-
- outvars: echo of selected default values                                      
-   iomode0 =  0 , fftalg0 =112 , wfoptalg0 = 10
-
- outvars: echo of global parameters not present in the input file              
-  max_nthreads =    0
-
 -outvars: echo values of preprocessed input variables --------
-          iomode           1
            acell      1.0000000000E+00  1.0000000000E+00  1.0000000000E+00 Bohr
              amu      1.51965000E+02  8.76200000E+01  6.94100000E+00
                       2.69815390E+01  1.40067400E+01  1.59994000E+01
       chkdilatmx           0
          chkprim           0
      chksymbreak           0
     densfor_pred           6
           diemac      5.00000000E+00
          dilatmx      1.05000000E+00
             ecut      1.00000000E+01 Hartree
           ecutsm      5.00000000E-01 Hartree
-          fftalg         112
           ionmov           2
           istwfk        2
              ixc       -1012
            jpawu      2.57245278E-02  0.00000000E+00  0.00000000E+00  0.00000000E+00  0.00000000E+00  0.00000000E+00 Hartree
         kptrlatt        1    0    0      0    1    0      0    0    1
          kptrlen      1.20337760E+01
            lpawu           3      -1      -1      -1      -1      -1
P           mkmem           1
            natom          36
            nband         115     115
            ngfft          48      48      36
          ngfftdg          64      64      54
             nkpt           1
-        np_spkpt           2
           nspden           2
           nsppol           2
            nstep         100
             nsym           4
            ntime        1000
           ntypat           6
              occ      1.000000  1.000000  1.000000  1.000000  1.000000  1.000000
                       1.000000  1.000000  1.000000  1.000000  1.000000  1.000000
                       1.000000  1.000000  1.000000  1.000000  1.000000  1.000000
                       1.000000  1.000000  1.000000  1.000000  1.000000  1.000000
                       1.000000  1.000000  1.000000  1.000000  1.000000  1.000000
                       1.000000  1.000000  1.000000  1.000000  1.000000  1.000000
                       1.000000  1.000000  1.000000  1.000000  1.000000  1.000000
                       1.000000  1.000000  1.000000  1.000000  1.000000  1.000000
                       1.000000  1.000000  1.000000  1.000000  1.000000  1.000000
                       1.000000  1.000000  1.000000  1.000000  1.000000  1.000000
                       1.000000  1.000000  1.000000  1.000000  1.000000  1.000000
                       1.000000  1.000000  1.000000  1.000000  1.000000  1.000000
                       1.000000  1.000000  1.000000  1.000000  1.000000  1.000000
                       1.000000  1.000000  1.000000  1.000000  1.000000  1.000000
                       1.000000  1.000000  1.000000  1.000000  1.000000  1.000000
                       1.000000  1.000000  1.000000  1.000000  1.000000  0.000000
                       0.000000  0.000000  0.000000  0.000000  0.000000  0.000000
                       0.000000  0.000000  0.000000  0.000000  0.000000  0.000000
                       0.000000  0.000000  0.000000  0.000000  0.000000  0.000000
                       0.000000
                       1.000000  1.000000  1.000000  1.000000  1.000000  1.000000
                       1.000000  1.000000  1.000000  1.000000  1.000000  1.000000
                       1.000000  1.000000  1.000000  1.000000  1.000000  1.000000
                       1.000000  1.000000  1.000000  1.000000  1.000000  1.000000
                       1.000000  1.000000  1.000000  1.000000  1.000000  1.000000
                       1.000000  1.000000  1.000000  1.000000  1.000000  1.000000
                       1.000000  1.000000  1.000000  1.000000  1.000000  1.000000
                       1.000000  1.000000  1.000000  1.000000  1.000000  1.000000
                       1.000000  1.000000  1.000000  1.000000  1.000000  1.000000
                       1.000000  1.000000  1.000000  1.000000  1.000000  1.000000
                       1.000000  1.000000  1.000000  1.000000  1.000000  1.000000
                       1.000000  1.000000  1.000000  1.000000  1.000000  1.000000
                       1.000000  1.000000  1.000000  1.000000  1.000000  1.000000
                       1.000000  1.000000  1.000000  1.000000  1.000000  1.000000
                       1.000000  1.000000  1.000000  1.000000  0.000000  0.000000
                       0.000000  0.000000  0.000000  0.000000  0.000000  0.000000
                       0.000000  0.000000  0.000000  0.000000  0.000000  0.000000
                       0.000000  0.000000  0.000000  0.000000  0.000000  0.000000
                       0.000000  0.000000  0.000000  0.000000  0.000000  0.000000
                       0.000000
           occopt           2
        optforces           1
        paral_kgb           1
        pawecutdg      2.00000000E+01 Hartree
            prtwf          -1
            rprim      1.5040330226E+01  0.0000000000E+00  0.0000000000E+00
                       0.0000000000E+00  1.5040330226E+01  0.0000000000E+00
                       0.0000000000E+00  0.0000000000E+00  1.2033775962E+01
          spgroup          10
           spinat      0.0000000000E+00  0.0000000000E+00  7.0000000000E+00
                       0.0000000000E+00  0.0000000000E+00  0.0000000000E+00
                       0.0000000000E+00  0.0000000000E+00  0.0000000000E+00
                       0.0000000000E+00  0.0000000000E+00  0.0000000000E+00
                       0.0000000000E+00  0.0000000000E+00  0.0000000000E+00
                       0.0000000000E+00  0.0000000000E+00  0.0000000000E+00
                       0.0000000000E+00  0.0000000000E+00  0.0000000000E+00
                       0.0000000000E+00  0.0000000000E+00  0.0000000000E+00
                       0.0000000000E+00  0.0000000000E+00  0.0000000000E+00
                       0.0000000000E+00  0.0000000000E+00  0.0000000000E+00
                       0.0000000000E+00  0.0000000000E+00  0.0000000000E+00
                       0.0000000000E+00  0.0000000000E+00  0.0000000000E+00
                       0.0000000000E+00  0.0000000000E+00  0.0000000000E+00
                       0.0000000000E+00  0.0000000000E+00  0.0000000000E+00
                       0.0000000000E+00  0.0000000000E+00  0.0000000000E+00
                       0.0000000000E+00  0.0000000000E+00  0.0000000000E+00
                       0.0000000000E+00  0.0000000000E+00  0.0000000000E+00
                       0.0000000000E+00  0.0000000000E+00  0.0000000000E+00
                       0.0000000000E+00  0.0000000000E+00  0.0000000000E+00
                       0.0000000000E+00  0.0000000000E+00  0.0000000000E+00
                       0.0000000000E+00  0.0000000000E+00  0.0000000000E+00
                       0.0000000000E+00  0.0000000000E+00  0.0000000000E+00
                       0.0000000000E+00  0.0000000000E+00  0.0000000000E+00
                       0.0000000000E+00  0.0000000000E+00  0.0000000000E+00
                       0.0000000000E+00  0.0000000000E+00  0.0000000000E+00
                       0.0000000000E+00  0.0000000000E+00  0.0000000000E+00
                       0.0000000000E+00  0.0000000000E+00  0.0000000000E+00
                       0.0000000000E+00  0.0000000000E+00  0.0000000000E+00
                       0.0000000000E+00  0.0000000000E+00  0.0000000000E+00
                       0.0000000000E+00  0.0000000000E+00  0.0000000000E+00
                       0.0000000000E+00  0.0000000000E+00  0.0000000000E+00
                       0.0000000000E+00  0.0000000000E+00  0.0000000000E+00
                       0.0000000000E+00  0.0000000000E+00  0.0000000000E+00
                       0.0000000000E+00  0.0000000000E+00  0.0000000000E+00
                       0.0000000000E+00  0.0000000000E+00  0.0000000000E+00
                       0.0000000000E+00  0.0000000000E+00  0.0000000000E+00
           symrel      1  0  0   0  1  0   0  0  1      -1  0  0   0 -1  0   0  0 -1
                      -1  0  0   0 -1  0   0  0  1       1  0  0   0  1  0   0  0 -1
            tnons      0.0000000  0.0000000  0.0000000    -0.0000000  0.0000000  0.5000000
                      -0.0000000  0.0000000  0.0000000     0.0000000  0.0000000  0.5000000
           toldff      1.00000000E-04
           tolmxf      1.00000000E-03
            typat      1  2  2  2  3  3  3  3  3  3  3  3  4  4  4  4  4  4  4  4
                       5  5  5  5  5  5  5  5  6  6  6  6  6  6  6  6
            upawu      2.57245278E-01  0.00000000E+00  0.00000000E+00  0.00000000E+00  0.00000000E+00  0.00000000E+00 Hartree
          usepawu           1
           useylm           1
         wfoptalg         114
           xangst      3.9794999826E+00  0.0000000000E+00  1.5919999930E+00
                       3.9794999826E+00  0.0000000000E+00  4.7759999791E+00
                       0.0000000000E+00  3.9794999826E+00  0.0000000000E+00
                       0.0000000000E+00  3.9794999826E+00  3.1839999861E+00
                       1.0426289954E+00  6.5343389714E+00  1.5919999930E+00
                       1.0426289954E+00  6.5343389714E+00  4.7759999791E+00
                       6.9163709698E+00  1.4246609938E+00  1.5919999930E+00
                       6.9163709698E+00  1.4246609938E+00  4.7759999791E+00
                       1.4246609938E+00  1.0426289954E+00  0.0000000000E+00
                       1.4246609938E+00  1.0426289954E+00  3.1839999861E+00
                       6.5343389714E+00  6.9163709698E+00  0.0000000000E+00
                       6.5343389714E+00  6.9163709698E+00  3.1839999861E+00
                       2.8119146877E+00  5.4455477762E+00  0.0000000000E+00
                       2.8119146877E+00  5.4455477762E+00  3.1839999861E+00
                       5.1470852775E+00  2.5134521890E+00  0.0000000000E+00
                       5.1470852775E+00  2.5134521890E+00  3.1839999861E+00
                       2.5134521890E+00  2.8119146877E+00  1.5919999930E+00
                       2.5134521890E+00  2.8119146877E+00  4.7759999791E+00
                       5.4455477762E+00  5.1470852775E+00  1.5919999930E+00
                       5.4455477762E+00  5.1470852775E+00  4.7759999791E+00
                       4.6599944796E+00  5.8092740746E+00  0.0000000000E+00
                       4.6599944796E+00  5.8092740746E+00  3.1839999861E+00
                       3.2990054856E+00  2.1497258906E+00  0.0000000000E+00
                       3.2990054856E+00  2.1497258906E+00  3.1839999861E+00
                       2.1497258906E+00  4.6599944796E+00  1.5919999930E+00
                       2.1497258906E+00  4.6599944796E+00  4.7759999791E+00
                       5.8092740746E+00  3.2990054856E+00  1.5919999930E+00
                       5.8092740746E+00  3.2990054856E+00  4.7759999791E+00
                       2.0263613911E+00  7.1113664689E+00  0.0000000000E+00
                       2.0263613911E+00  7.1113664689E+00  3.1839999861E+00
                       5.9326385741E+00  8.4763349630E-01  0.0000000000E+00
                       5.9326385741E+00  8.4763349630E-01  3.1839999861E+00
                       8.4763349630E-01  2.0263613911E+00  1.5919999930E+00
                       8.4763349630E-01  2.0263613911E+00  4.7759999791E+00
                       7.1113664689E+00  5.9326385741E+00  1.5919999930E+00
                       7.1113664689E+00  5.9326385741E+00  4.7759999791E+00
            xcart      7.5201651129E+00  0.0000000000E+00  3.0084439904E+00
                       7.5201651129E+00  0.0000000000E+00  9.0253319712E+00
                       0.0000000000E+00  7.5201651129E+00  0.0000000000E+00
                       0.0000000000E+00  7.5201651129E+00  6.0168879808E+00
                       1.9702832596E+00  1.2348111115E+01  3.0084439904E+00
                       1.9702832596E+00  1.2348111115E+01  9.0253319712E+00
                       1.3070046966E+01  2.6922191104E+00  3.0084439904E+00
                       1.3070046966E+01  2.6922191104E+00  9.0253319712E+00
                       2.6922191104E+00  1.9702832596E+00  0.0000000000E+00
                       2.6922191104E+00  1.9702832596E+00  6.0168879808E+00
                       1.2348111115E+01  1.3070046966E+01  0.0000000000E+00
                       1.2348111115E+01  1.3070046966E+01  6.0168879808E+00
                       5.3137486688E+00  1.0290593941E+01  0.0000000000E+00
                       5.3137486688E+00  1.0290593941E+01  6.0168879808E+00
                       9.7265815571E+00  4.7497362853E+00  0.0000000000E+00
                       9.7265815571E+00  4.7497362853E+00  6.0168879808E+00
                       4.7497362853E+00  5.3137486688E+00  3.0084439904E+00
                       4.7497362853E+00  5.3137486688E+00  9.0253319712E+00
                       1.0290593941E+01  9.7265815571E+00  3.0084439904E+00
                       1.0290593941E+01  9.7265815571E+00  9.0253319712E+00
                       8.8061133473E+00  1.0977937032E+01  0.0000000000E+00
                       8.8061133473E+00  1.0977937032E+01  6.0168879808E+00
                       6.2342168786E+00  4.0623931940E+00  0.0000000000E+00
                       6.2342168786E+00  4.0623931940E+00  6.0168879808E+00
                       4.0623931940E+00  8.8061133473E+00  3.0084439904E+00
                       4.0623931940E+00  8.8061133473E+00  9.0253319712E+00
                       1.0977937032E+01  6.2342168786E+00  3.0084439904E+00
                       1.0977937032E+01  6.2342168786E+00  9.0253319712E+00
                       3.8292680755E+00  1.3438535057E+01  0.0000000000E+00
                       3.8292680755E+00  1.3438535057E+01  6.0168879808E+00
                       1.1211062150E+01  1.6017951691E+00  0.0000000000E+00
                       1.1211062150E+01  1.6017951691E+00  6.0168879808E+00
                       1.6017951691E+00  3.8292680755E+00  3.0084439904E+00
                       1.6017951691E+00  3.8292680755E+00  9.0253319712E+00
                       1.3438535057E+01  1.1211062150E+01  3.0084439904E+00
                       1.3438535057E+01  1.1211062150E+01  9.0253319712E+00
             xred      5.0000000000E-01  0.0000000000E+00  2.5000000000E-01
                       5.0000000000E-01  0.0000000000E+00  7.5000000000E-01
                       0.0000000000E+00  5.0000000000E-01  0.0000000000E+00
                       0.0000000000E+00  5.0000000000E-01  5.0000000000E-01
                       1.3100000000E-01  8.2100000000E-01  2.5000000000E-01
                       1.3100000000E-01  8.2100000000E-01  7.5000000000E-01
                       8.6900000000E-01  1.7900000000E-01  2.5000000000E-01
                       8.6900000000E-01  1.7900000000E-01  7.5000000000E-01
                       1.7900000000E-01  1.3100000000E-01  0.0000000000E+00
                       1.7900000000E-01  1.3100000000E-01  5.0000000000E-01
                       8.2100000000E-01  8.6900000000E-01  0.0000000000E+00
                       8.2100000000E-01  8.6900000000E-01  5.0000000000E-01
                       3.5330000000E-01  6.8420000000E-01  0.0000000000E+00
                       3.5330000000E-01  6.8420000000E-01  5.0000000000E-01
                       6.4670000000E-01  3.1580000000E-01  0.0000000000E+00
                       6.4670000000E-01  3.1580000000E-01  5.0000000000E-01
                       3.1580000000E-01  3.5330000000E-01  2.5000000000E-01
                       3.1580000000E-01  3.5330000000E-01  7.5000000000E-01
                       6.8420000000E-01  6.4670000000E-01  2.5000000000E-01
                       6.8420000000E-01  6.4670000000E-01  7.5000000000E-01
                       5.8550000000E-01  7.2990000000E-01  0.0000000000E+00
                       5.8550000000E-01  7.2990000000E-01  5.0000000000E-01
                       4.1450000000E-01  2.7010000000E-01  0.0000000000E+00
                       4.1450000000E-01  2.7010000000E-01  5.0000000000E-01
                       2.7010000000E-01  5.8550000000E-01  2.5000000000E-01
                       2.7010000000E-01  5.8550000000E-01  7.5000000000E-01
                       7.2990000000E-01  4.1450000000E-01  2.5000000000E-01
                       7.2990000000E-01  4.1450000000E-01  7.5000000000E-01
                       2.5460000000E-01  8.9350000000E-01  0.0000000000E+00
                       2.5460000000E-01  8.9350000000E-01  5.0000000000E-01
                       7.4540000000E-01  1.0650000000E-01  0.0000000000E+00
                       7.4540000000E-01  1.0650000000E-01  5.0000000000E-01
                       1.0650000000E-01  2.5460000000E-01  2.5000000000E-01
                       1.0650000000E-01  2.5460000000E-01  7.5000000000E-01
                       8.9350000000E-01  7.4540000000E-01  2.5000000000E-01
                       8.9350000000E-01  7.4540000000E-01  7.5000000000E-01
            znucl       63.00000   38.00000    3.00000   13.00000    7.00000    8.00000

================================================================================

 chkinp: Checking input parameters for consistency.

================================================================================
== DATASET  1 ==================================================================
-   mpi_nproc: 2, omp_nthreads: -1 (-1 if OMP is not activated)


--- !DatasetInfo
iteration_state: {dtset: 1, }
dimensions: {natom: 36, nkpt: 1, mband: 115, nsppol: 2, nspinor: 1, nspden: 2, mpw: 2369, }
cutoff_energies: {ecut:  10.0, pawecutdg:  20.0, }
electrons: {nelect:   1.83000000E+02, charge:   0.00000000E+00, occopt:   2.00000000E+00, tsmear:   1.00000000E-02, }
meta: {optdriver: 0, ionmov: 2, optcell: 0, iscf: 17, paral_kgb: 1, }
...

 Real(R)+Recip(G) space primitive vectors, cartesian coordinates (Bohr,Bohr^-1):
 R(1)= 15.0403302  0.0000000  0.0000000  G(1)=  0.0664879  0.0000000  0.0000000
 R(2)=  0.0000000 15.0403302  0.0000000  G(2)=  0.0000000  0.0664879  0.0000000
 R(3)=  0.0000000  0.0000000 12.0337760  G(3)=  0.0000000  0.0000000  0.0830994
 Unit cell volume ucvol=  2.7221789E+03 bohr^3
 Angles (23,13,12)=  9.00000000E+01  9.00000000E+01  9.00000000E+01 degrees

 Coarse grid specifications (used for wave-functions):

 getcut: wavevector=  0.0000  0.0000  0.0000  ngfft=  48  48  36
         ecut(hartree)=     11.025   => boxcut(ratio)=   2.00146

 Fine grid specifications (used for densities):

 getcut: wavevector=  0.0000  0.0000  0.0000  ngfft=  64  64  54
         ecut(hartree)=     22.050   => boxcut(ratio)=   2.01304

--- Pseudopotential description ------------------------------------------------
- pspini: atom type   1  psp file is /Users/jbouquiaux/git/lumi_book/lumi_book/lumi/pseudos/Eu.xml
- pspatm: opening atomic psp file    /Users/jbouquiaux/git/lumi_book/lumi_book/lumi/pseudos/Eu.xml
- pspatm : Reading pseudopotential header in XML form from /Users/jbouquiaux/git/lumi_book/lumi_book/lumi/pseudos/Eu.xml
 Pseudopotential format is: paw10
 basis_size (lnmax)=  8 (lmn_size= 32), orbitals=   0   0   1   1   2   2   3   3
 Spheres core radius: rc_sph= 2.52170005
 1 radial meshes are used:
  - mesh 1: r(i)=AA*[exp(BB*(i-1))-1], size=1500 , AA= 0.14034E-03 BB= 0.88415E-02
 Shapefunction is SIN type: shapef(r)=[sin(pi*r/rshp)/(pi*r/rshp)]**2
 Radius for shape functions =  2.30830346
 mmax= 1500
 Radial grid used for partial waves is grid 1
 Radial grid used for projectors is grid 1
 Radial grid used for (t)core density is grid 1
 Radial grid used for Vloc is grid 1
 Radial grid used for pseudo valence density is grid 1
 Mesh size for Vloc has been set to 1343 to avoid numerical noise.
 Compensation charge density is not taken into account in XC energy/potential
 pspatm: atomic psp has been read  and splines computed

- pspini: atom type   2  psp file is /Users/jbouquiaux/git/lumi_book/lumi_book/lumi/pseudos/Sr.xml
- pspatm: opening atomic psp file    /Users/jbouquiaux/git/lumi_book/lumi_book/lumi/pseudos/Sr.xml
- pspatm : Reading pseudopotential header in XML form from /Users/jbouquiaux/git/lumi_book/lumi_book/lumi/pseudos/Sr.xml
 Pseudopotential format is: paw10
 basis_size (lnmax)=  6 (lmn_size= 18), orbitals=   0   0   1   1   2   2
 Spheres core radius: rc_sph= 2.20669967
 1 radial meshes are used:
  - mesh 1: r(i)=AA*[exp(BB*(i-1))-1], size=1500 , AA= 0.22443E-03 BB= 0.85283E-02
 Shapefunction is SIN type: shapef(r)=[sin(pi*r/rshp)/(pi*r/rshp)]**2
 Radius for shape functions =  1.81361893
 mmax= 1500
 Radial grid used for partial waves is grid 1
 Radial grid used for projectors is grid 1
 Radial grid used for (t)core density is grid 1
 Radial grid used for Vloc is grid 1
 Radial grid used for pseudo valence density is grid 1
 Mesh size for Vloc has been set to 1337 to avoid numerical noise.
 Compensation charge density is not taken into account in XC energy/potential
 pspatm: atomic psp has been read  and splines computed

- pspini: atom type   3  psp file is /Users/jbouquiaux/git/lumi_book/lumi_book/lumi/pseudos/Li.xml
- pspatm: opening atomic psp file    /Users/jbouquiaux/git/lumi_book/lumi_book/lumi/pseudos/Li.xml
- pspatm : Reading pseudopotential header in XML form from /Users/jbouquiaux/git/lumi_book/lumi_book/lumi/pseudos/Li.xml
 Pseudopotential format is: paw10
 basis_size (lnmax)=  5 (lmn_size=  9), orbitals=   0   0   0   1   1
 Spheres core radius: rc_sph= 1.60264751
 1 radial meshes are used:
  - mesh 1: r(i)=AA*[exp(BB*(i-1))-1], size=2001 , AA= 0.17851E-02 BB= 0.53552E-02
 Shapefunction is BESSEL type: shapef(r,l)=aa(1,l)*jl(q(1,l)*r)+aa(2,l)*jl(q(2,l)*r)
 Radius for shape functions =  1.30023672
 mmax= 2001
 Radial grid used for partial waves is grid 1
 Radial grid used for projectors is grid 1
 Radial grid used for (t)core density is grid 1
 Radial grid used for Vloc is grid 1
 Radial grid used for pseudo valence density is grid 1
 Mesh size for Vloc has been set to 1742 to avoid numerical noise.
 Compensation charge density is not taken into account in XC energy/potential
 pspatm: atomic psp has been read  and splines computed

- pspini: atom type   4  psp file is /Users/jbouquiaux/git/lumi_book/lumi_book/lumi/pseudos/Al.xml
- pspatm: opening atomic psp file    /Users/jbouquiaux/git/lumi_book/lumi_book/lumi/pseudos/Al.xml
- pspatm : Reading pseudopotential header in XML form from /Users/jbouquiaux/git/lumi_book/lumi_book/lumi/pseudos/Al.xml
 Pseudopotential format is: paw10
 basis_size (lnmax)=  4 (lmn_size=  8), orbitals=   0   0   1   1
 Spheres core radius: rc_sph= 1.90363307
 1 radial meshes are used:
  - mesh 1: r(i)=AA*[exp(BB*(i-1))-1], size=2001 , AA= 0.46377E-03 BB= 0.60291E-02
 Shapefunction is SIN type: shapef(r)=[sin(pi*r/rshp)/(pi*r/rshp)]**2
 Radius for shape functions =  1.60786206
 mmax= 2001
 Radial grid used for partial waves is grid 1
 Radial grid used for projectors is grid 1
 Radial grid used for (t)core density is grid 1
 Radial grid used for Vloc is grid 1
 Radial grid used for pseudo valence density is grid 1
 Mesh size for Vloc has been set to 1771 to avoid numerical noise.
 Compensation charge density is not taken into account in XC energy/potential
 pspatm: atomic psp has been read  and splines computed

- pspini: atom type   5  psp file is /Users/jbouquiaux/git/lumi_book/lumi_book/lumi/pseudos/N.xml
- pspatm: opening atomic psp file    /Users/jbouquiaux/git/lumi_book/lumi_book/lumi/pseudos/N.xml
- pspatm : Reading pseudopotential header in XML form from /Users/jbouquiaux/git/lumi_book/lumi_book/lumi/pseudos/N.xml
 Pseudopotential format is: paw10
 basis_size (lnmax)=  4 (lmn_size=  8), orbitals=   0   0   1   1
 Spheres core radius: rc_sph= 1.20000000
 1 radial meshes are used:
  - mesh 1: r(i)=AA*[exp(BB*(i-1))-1], size= 787 , AA= 0.19344E-02 BB= 0.13541E-01
 Shapefunction is SIN type: shapef(r)=[sin(pi*r/rshp)/(pi*r/rshp)]**2
 Radius for shape functions =  1.00599851
 mmax=  787
 Radial grid used for partial waves is grid 1
 Radial grid used for projectors is grid 1
 Radial grid used for (t)core density is grid 1
 Radial grid used for Vloc is grid 1
 Radial grid used for pseudo valence density is grid 1
 Mesh size for Vloc has been set to  683 to avoid numerical noise.
 Compensation charge density is not taken into account in XC energy/potential
 pspatm: atomic psp has been read  and splines computed

- pspini: atom type   6  psp file is /Users/jbouquiaux/git/lumi_book/lumi_book/lumi/pseudos/O.xml
- pspatm: opening atomic psp file    /Users/jbouquiaux/git/lumi_book/lumi_book/lumi/pseudos/O.xml
- pspatm : Reading pseudopotential header in XML form from /Users/jbouquiaux/git/lumi_book/lumi_book/lumi/pseudos/O.xml
 Pseudopotential format is: paw10
 basis_size (lnmax)=  4 (lmn_size=  8), orbitals=   0   0   1   1
 Spheres core radius: rc_sph= 1.41465230
 1 radial meshes are used:
  - mesh 1: r(i)=AA*[exp(BB*(i-1))-1], size=2001 , AA= 0.72565E-03 BB= 0.58052E-02
 Shapefunction is SIN type: shapef(r)=[sin(pi*r/rshp)/(pi*r/rshp)]**2
 Radius for shape functions =  1.20231231
 mmax= 2001
 Radial grid used for partial waves is grid 1
 Radial grid used for projectors is grid 1
 Radial grid used for (t)core density is grid 1
 Radial grid used for Vloc is grid 1
 Radial grid used for pseudo valence density is grid 1
 Mesh size for Vloc has been set to 1762 to avoid numerical noise.
 Compensation charge density is not taken into account in XC energy/potential
 pspatm: atomic psp has been read  and splines computed

   4.06209126E+04                                ecore*ucvol(ha*bohr**3)
--------------------------------------------------------------------------------

_setup2: Arith. and geom. avg. npw (full set) are    4737.000    4737.000


 ******************************************
 DFT+U Method used: FLL
 ******************************************

================================================================================

=== [ionmov= 2] Broyden-Fletcher-Goldfard-Shanno method (forces)            
================================================================================

--- Iteration: (   1/1000) Internal Cycle: (1/1)
--------------------------------------------------------------------------------

---SELF-CONSISTENT-FIELD CONVERGENCE--------------------------------------------

--- !BeginCycle
iteration_state: {dtset: 1, itime: 1, icycle: 1, }
solver: {iscf: 17, nstep: 100, nline: 4, wfoptalg: 114, }
tolerances: {toldff: 1.00E-04, }
...

     iter   Etot(hartree)      deltaE(h)  residm     nres2    diffor    maxfor
 ETOT  1  -491.77078809840    -4.918E+02 5.492E-02 4.969E+02 2.039E+03 2.039E+03
 ETOT  2  -505.61897572381    -1.385E+01 3.690E-03 2.259E+03 2.039E+03 1.401E-01
 ETOT  3  -472.77517015694     3.284E+01 3.056E-01 9.996E+01 1.418E-01 6.375E-02
 ETOT  4  -475.38878928228    -2.614E+00 2.619E-02 4.286E+02 9.672E-02 4.840E-02
 ETOT  5  -474.77862059245     6.102E-01 1.238E-02 2.393E+01 3.790E-02 3.119E-02
 ETOT  6  -475.18890461728    -4.103E-01 9.461E-04 2.263E+01 2.760E-02 1.791E-02
 ETOT  7  -475.22221305799    -3.331E-02 5.049E-03 1.999E+01 1.074E-02 1.827E-02
 ETOT  8  -475.18767454403     3.454E-02 1.872E-03 1.627E+01 8.317E-03 1.692E-02
 ETOT  9  -475.10882867538     7.885E-02 6.983E-04 1.103E+01 1.477E-02 2.450E-02
 ETOT 10  -474.99318132530     1.156E-01 2.544E-03 7.251E+00 2.140E-02 1.438E-02
 ETOT 11  -475.01146004080    -1.828E-02 1.195E-03 3.524E+00 1.892E-02 2.111E-02
 ETOT 12  -475.04197532038    -3.052E-02 1.355E-04 3.211E+00 8.291E-03 1.547E-02
 ETOT 13  -475.61693125279    -5.750E-01 2.682E-02 3.699E+02 4.706E-02 5.067E-02
 ETOT 14  -474.50573246609     1.111E+00 2.321E-02 4.269E+00 5.241E-02 2.195E-02
 ETOT 15  -475.01919542772    -5.135E-01 1.401E-03 3.508E+00 1.796E-02 1.681E-02
 ETOT 16  -475.03220274835    -1.301E-02 7.421E-04 1.534E+01 3.963E-03 1.659E-02
 ETOT 17  -475.03459823586    -2.395E-03 1.201E-04 1.613E+01 1.154E-03 1.644E-02
 ETOT 18  -475.03682388985    -2.226E-03 5.693E-04 1.785E+01 2.116E-03 1.604E-02
 ETOT 19  -475.06922155457    -3.240E-02 7.096E-04 5.093E+00 8.956E-03 1.876E-02
 ETOT 20  -475.06703831355     2.183E-03 3.414E-04 4.406E+00 7.898E-03 1.415E-02
 ETOT 21  -475.06017615703     6.862E-03 1.675E-03 4.287E+00 4.470E-03 1.599E-02
 ETOT 22  -475.73298883497    -6.728E-01 1.177E-02 3.280E+02 4.619E-02 5.077E-02
 ETOT 23  -474.79807947075     9.349E-01 1.422E-02 3.512E+00 4.439E-02 1.579E-02
 ETOT 24  -475.06921286247    -2.711E-01 7.952E-04 2.694E+00 1.209E-02 1.562E-02
 ETOT 25  -475.06610509882     3.108E-03 4.094E-04 2.480E+00 2.664E-03 1.627E-02
 ETOT 26  -475.06168767304     4.417E-03 7.629E-04 2.631E+00 2.939E-03 1.394E-02
 ETOT 27  -475.12287003424    -6.118E-02 4.136E-03 7.933E-01 7.076E-03 1.472E-02
 ETOT 28  -475.15142019333    -2.855E-02 1.569E-03 1.010E+00 4.922E-03 1.630E-02
 ETOT 29  -475.16487942334    -1.346E-02 8.155E-04 1.034E+00 5.775E-03 1.635E-02
 ETOT 30  -475.17272482032    -7.845E-03 1.175E-04 9.237E-01 3.185E-03 1.558E-02
 ETOT 31  -475.09126936618     8.146E-02 6.296E-03 8.036E+00 6.393E-03 1.744E-02
 ETOT 32  -475.13753327247    -4.626E-02 5.400E-03 1.076E+00 6.354E-03 1.429E-02
 ETOT 33  -475.21491774222    -7.738E-02 1.991E-03 1.050E+00 6.370E-03 1.324E-02
 ETOT 34  -475.19913790858     1.578E-02 1.980E-03 1.657E-01 1.625E-03 1.255E-02
 ETOT 35  -475.21257377176    -1.344E-02 1.722E-03 2.597E-01 2.333E-03 1.311E-02
 ETOT 36  -475.21062302604     1.951E-03 5.358E-04 1.321E-02 1.058E-03 1.295E-02
 ETOT 37  -475.21204381824    -1.421E-03 2.952E-03 1.487E-02 1.391E-03 1.266E-02
 ETOT 38  -475.21214272062    -9.890E-05 7.788E-04 1.723E-02 2.795E-04 1.263E-02
 ETOT 39  -475.21187766498     2.651E-04 3.349E-04 2.600E-03 4.910E-04 1.257E-02
 ETOT 40  -475.21214630071    -2.686E-04 7.303E-05 1.127E-03 2.872E-04 1.265E-02
 ETOT 41  -475.21214360213     2.699E-06 5.960E-05 1.262E-04 1.540E-04 1.251E-02
 ETOT 42  -475.21215096230    -7.360E-06 2.043E-05 7.313E-05 9.681E-05 1.261E-02
 ETOT 43  -475.21215195858    -9.963E-07 1.538E-05 2.504E-05 5.334E-05 1.260E-02

 At SCF step   43, forces are converged : 
  for the second time, max diff in force=  5.334E-05 < toldff=  1.000E-04

 Cartesian components of stress tensor (hartree/bohr^3)
  sigma(1 1)=  4.08568107E-04  sigma(3 2)=  0.00000000E+00
  sigma(2 2)=  4.10302135E-04  sigma(3 1)=  0.00000000E+00
  sigma(3 3)= -2.45141956E-05  sigma(2 1)=  2.28250633E-07


--- !ResultsGS
iteration_state: {dtset: 1, itime: 1, icycle: 1, }
comment   : Summary of ground state results
lattice_vectors:
- [ 15.0403302,   0.0000000,   0.0000000, ]
- [  0.0000000,  15.0403302,   0.0000000, ]
- [  0.0000000,   0.0000000,  12.0337760, ]
lattice_lengths: [  15.04033,   15.04033,   12.03378, ]
lattice_angles: [ 90.000,  90.000,  90.000, ] # degrees, (23, 13, 12)
lattice_volume:   2.7221789E+03
convergence: {deltae: -9.963E-07, res2:  2.504E-05, residm:  1.538E-05, diffor:  5.334E-05, }
etotal    :  -4.75212152E+02
entropy   :   0.00000000E+00
fermie    :   2.22898432E-01
cartesian_stress_tensor: # hartree/bohr^3
- [  4.08568107E-04,   2.28250633E-07,   0.00000000E+00, ]
- [  2.28250633E-07,   4.10302135E-04,   0.00000000E+00, ]
- [  0.00000000E+00,   0.00000000E+00,  -2.45141956E-05, ]
pressure_GPa:  -7.7903E+00
xred      :
- [  5.0000E-01,   0.0000E+00,   2.5000E-01, Eu]
- [  5.0000E-01,   0.0000E+00,   7.5000E-01, Sr]
- [  0.0000E+00,   5.0000E-01,   0.0000E+00, Sr]
- [  0.0000E+00,   5.0000E-01,   5.0000E-01, Sr]
- [  1.3100E-01,   8.2100E-01,   2.5000E-01, Li]
- [  1.3100E-01,   8.2100E-01,   7.5000E-01, Li]
- [  8.6900E-01,   1.7900E-01,   2.5000E-01, Li]
- [  8.6900E-01,   1.7900E-01,   7.5000E-01, Li]
- [  1.7900E-01,   1.3100E-01,   0.0000E+00, Li]
- [  1.7900E-01,   1.3100E-01,   5.0000E-01, Li]
- [  8.2100E-01,   8.6900E-01,   0.0000E+00, Li]
- [  8.2100E-01,   8.6900E-01,   5.0000E-01, Li]
- [  3.5330E-01,   6.8420E-01,   0.0000E+00, Al]
- [  3.5330E-01,   6.8420E-01,   5.0000E-01, Al]
- [  6.4670E-01,   3.1580E-01,   0.0000E+00, Al]
- [  6.4670E-01,   3.1580E-01,   5.0000E-01, Al]
- [  3.1580E-01,   3.5330E-01,   2.5000E-01, Al]
- [  3.1580E-01,   3.5330E-01,   7.5000E-01, Al]
- [  6.8420E-01,   6.4670E-01,   2.5000E-01, Al]
- [  6.8420E-01,   6.4670E-01,   7.5000E-01, Al]
- [  5.8550E-01,   7.2990E-01,   0.0000E+00,  N]
- [  5.8550E-01,   7.2990E-01,   5.0000E-01,  N]
- [  4.1450E-01,   2.7010E-01,   0.0000E+00,  N]
- [  4.1450E-01,   2.7010E-01,   5.0000E-01,  N]
- [  2.7010E-01,   5.8550E-01,   2.5000E-01,  N]
- [  2.7010E-01,   5.8550E-01,   7.5000E-01,  N]
- [  7.2990E-01,   4.1450E-01,   2.5000E-01,  N]
- [  7.2990E-01,   4.1450E-01,   7.5000E-01,  N]
- [  2.5460E-01,   8.9350E-01,   0.0000E+00,  O]
- [  2.5460E-01,   8.9350E-01,   5.0000E-01,  O]
- [  7.4540E-01,   1.0650E-01,   0.0000E+00,  O]
- [  7.4540E-01,   1.0650E-01,   5.0000E-01,  O]
- [  1.0650E-01,   2.5460E-01,   2.5000E-01,  O]
- [  1.0650E-01,   2.5460E-01,   7.5000E-01,  O]
- [  8.9350E-01,   7.4540E-01,   2.5000E-01,  O]
- [  8.9350E-01,   7.4540E-01,   7.5000E-01,  O]
cartesian_forces: # hartree/bohr
- [  4.81867632E-20,  -0.00000000E+00,  -0.00000000E+00, ]
- [  4.81867632E-20,  -0.00000000E+00,  -0.00000000E+00, ]
- [  4.81867632E-20,  -0.00000000E+00,   1.56179118E-04, ]
- [  4.81867632E-20,  -0.00000000E+00,  -1.56179118E-04, ]
- [ -3.02043777E-03,   4.59106070E-03,  -0.00000000E+00, ]
- [ -3.20925544E-03,   4.53177938E-03,  -0.00000000E+00, ]
- [  3.02043777E-03,  -4.59106070E-03,  -0.00000000E+00, ]
- [  3.20925544E-03,  -4.53177938E-03,  -0.00000000E+00, ]
- [ -4.39576825E-03,  -3.11845771E-03,   2.37372877E-04, ]
- [ -4.39576825E-03,  -3.11845771E-03,  -2.37372877E-04, ]
- [  4.39576825E-03,   3.11845771E-03,   2.37372877E-04, ]
- [  4.39576825E-03,   3.11845771E-03,  -2.37372877E-04, ]
- [ -3.08767578E-03,   3.41277424E-03,   5.32080085E-04, ]
- [ -3.08767578E-03,   3.41277424E-03,  -5.32080085E-04, ]
- [  3.08767578E-03,  -3.41277424E-03,   5.32080085E-04, ]
- [  3.08767578E-03,  -3.41277424E-03,  -5.32080085E-04, ]
- [ -3.26906780E-03,  -4.03555454E-03,  -0.00000000E+00, ]
- [ -3.43315691E-03,  -3.37295100E-03,  -0.00000000E+00, ]
- [  3.26906780E-03,   4.03555454E-03,  -0.00000000E+00, ]
- [  3.43315691E-03,   3.37295100E-03,  -0.00000000E+00, ]
- [  1.97914410E-03,  -8.22343173E-04,  -2.09561217E-04, ]
- [  1.97914410E-03,  -8.22343173E-04,   2.09561217E-04, ]
- [ -1.97914410E-03,   8.22343173E-04,  -2.09561217E-04, ]
- [ -1.97914410E-03,   8.22343173E-04,   2.09561217E-04, ]
- [  9.87881204E-04,   1.96782097E-03,  -0.00000000E+00, ]
- [  1.08246892E-03,   2.15517432E-03,   2.14807008E-27, ]
- [ -9.87881204E-04,  -1.96782097E-03,  -0.00000000E+00, ]
- [ -1.08246892E-03,  -2.15517432E-03,  -2.14807008E-27, ]
- [  5.62361290E-03,  -1.24755850E-02,  -3.48939580E-04, ]
- [  5.62361290E-03,  -1.24755850E-02,   3.48939580E-04, ]
- [ -5.62361290E-03,   1.24755850E-02,  -3.48939580E-04, ]
- [ -5.62361290E-03,   1.24755850E-02,   3.48939580E-04, ]
- [  1.26020616E-02,   6.00149175E-03,  -0.00000000E+00, ]
- [  1.25483840E-02,   5.96029769E-03,  -0.00000000E+00, ]
- [ -1.26020616E-02,  -6.00149175E-03,  -0.00000000E+00, ]
- [ -1.25483840E-02,  -5.96029769E-03,  -0.00000000E+00, ]
force_length_stats: {min:   4.81867632E-20, max:   1.39581467E-02, mean:   5.85638706E-03, }
...

 Integrated electronic and magnetization densities in atomic spheres:
 ---------------------------------------------------------------------
 Radius=ratsph(iatom), smearing ratsm=  0.0000. Diff(up-dn)=approximate z local magnetic moment.
 Atom    Radius    up_density   dn_density  Total(up+dn)  Diff(up-dn)
    1   2.52170    10.803443     3.926903     14.730346     6.876540
    2   2.20670     3.671730     3.669909      7.341639     0.001820
    3   2.20670     3.668405     3.667815      7.336220     0.000590
    4   2.20670     3.668405     3.667815      7.336220     0.000590
    5   1.60265     1.063179     1.063082      2.126262     0.000097
    6   1.60265     1.063031     1.063273      2.126304    -0.000242
    7   1.60265     1.063179     1.063082      2.126262     0.000097
    8   1.60265     1.063031     1.063273      2.126304    -0.000242
    9   1.60265     1.063995     1.063797      2.127793     0.000198
   10   1.60265     1.063995     1.063797      2.127793     0.000198
   11   1.60265     1.063995     1.063797      2.127793     0.000198
   12   1.60265     1.063995     1.063797      2.127793     0.000198
   13   1.90363     0.467317     0.466865      0.934182     0.000451
   14   1.90363     0.467317     0.466865      0.934182     0.000451
   15   1.90363     0.467317     0.466865      0.934182     0.000451
   16   1.90363     0.467317     0.466865      0.934182     0.000451
   17   1.90363     0.473453     0.472829      0.946281     0.000624
   18   1.90363     0.472885     0.473687      0.946572    -0.000802
   19   1.90363     0.473453     0.472829      0.946281     0.000624
   20   1.90363     0.472885     0.473687      0.946572    -0.000802
   21   1.20000     1.234243     1.238989      2.473232    -0.004746
   22   1.20000     1.234243     1.238989      2.473232    -0.004746
   23   1.20000     1.234243     1.238989      2.473232    -0.004746
   24   1.20000     1.234243     1.238989      2.473232    -0.004746
   25   1.20000     1.241414     1.241327      2.482741     0.000087
   26   1.20000     1.240627     1.241917      2.482544    -0.001290
   27   1.20000     1.241414     1.241327      2.482741     0.000087
   28   1.20000     1.240627     1.241917      2.482544    -0.001290
   29   1.41465     2.281281     2.288571      4.569853    -0.007290
   30   1.41465     2.281281     2.288571      4.569853    -0.007290
   31   1.41465     2.281281     2.288571      4.569853    -0.007290
   32   1.41465     2.281281     2.288571      4.569853    -0.007290
   33   1.41465     2.296896     2.296998      4.593894    -0.000102
   34   1.41465     2.296682     2.296987      4.593669    -0.000304
   35   1.41465     2.296896     2.296998      4.593894    -0.000102
   36   1.41465     2.296682     2.296987      4.593669    -0.000304
 ---------------------------------------------------------------------
  Sum:             62.295663    55.465533    117.761195     6.830130
 Total magnetization (from the atomic spheres):             6.830130
 Total magnetization (exact up - dn):                       7.000067

 PAW TEST:
 ==== Compensation charge inside spheres ============
 The following values must be close to each other ...
 Compensation charge over spherical meshes =     15.996237669941561
 Compensation charge over fine fft grid    =     15.995797791989103

 ==== Results concerning PAW augmentation regions ====

 Total pseudopotential strength Dij (hartree):
 Atom #  1 - Spin component 1
  -0.74619  -0.08229   0.00000   0.00000   0.00000   0.00000   0.00000   0.00000   0.00000   0.00000   0.00006   0.00000 ...
  -0.08229  -0.10056   0.00000   0.00000   0.00000   0.00000   0.00000   0.00000   0.00000   0.00000   0.00001   0.00000 ...
   0.00000   0.00000  -0.71428   0.00000   0.00008   0.14802   0.00000  -0.00020   0.00000   0.00000   0.00000   0.00000 ...
   0.00000   0.00000   0.00000  -0.71420   0.00000   0.00000   0.14805   0.00000   0.00000   0.00000   0.00000   0.00000 ...
   0.00000   0.00000   0.00008   0.00000  -0.71405  -0.00020   0.00000   0.14741   0.00000   0.00000   0.00000   0.00000 ...
   0.00000   0.00000   0.14802   0.00000  -0.00020   0.88834   0.00000   0.00010   0.00000   0.00000   0.00000   0.00000 ...
   0.00000   0.00000   0.00000   0.14805   0.00000   0.00000   0.88852   0.00000   0.00000   0.00000   0.00000   0.00000 ...
   0.00000   0.00000  -0.00020   0.00000   0.14741   0.00010   0.00000   0.88857   0.00000   0.00000   0.00000   0.00000 ...
   0.00000   0.00000   0.00000   0.00000   0.00000   0.00000   0.00000   0.00000  -0.18509   0.00000  -0.00001   0.00000 ...
   0.00000   0.00000   0.00000   0.00000   0.00000   0.00000   0.00000   0.00000   0.00000  -0.18508   0.00000   0.00001 ...
   0.00006   0.00001   0.00000   0.00000   0.00000   0.00000   0.00000   0.00000  -0.00001   0.00000  -0.18507   0.00000 ...
   0.00000   0.00000   0.00000   0.00000   0.00000   0.00000   0.00000   0.00000   0.00000   0.00001   0.00000  -0.18507 ...
   ...  only 12  components have been written...
 Atom #  1 - Spin component 2
  -0.67252  -0.07164   0.00000   0.00000   0.00000   0.00000   0.00000   0.00000   0.00004   0.00000   0.00009   0.00000 ...
  -0.07164  -0.09835   0.00000   0.00000   0.00000   0.00000   0.00000   0.00000   0.00001   0.00000   0.00001   0.00000 ...
   0.00000   0.00000  -0.65022   0.00000   0.00015   0.08494   0.00000  -0.00027   0.00000   0.00000   0.00000   0.00000 ...
   0.00000   0.00000   0.00000  -0.64995   0.00000   0.00000   0.08478   0.00000   0.00000   0.00000   0.00000   0.00000 ...
   0.00000   0.00000   0.00015   0.00000  -0.64980  -0.00027   0.00000   0.08413   0.00000   0.00000   0.00000   0.00000 ...
   0.00000   0.00000   0.08494   0.00000  -0.00027   0.95564   0.00000   0.00017   0.00000   0.00000   0.00000   0.00000 ...
   0.00000   0.00000   0.00000   0.08478   0.00000   0.00000   0.95600   0.00000   0.00000   0.00000   0.00000   0.00000 ...
   0.00000   0.00000  -0.00027   0.00000   0.08413   0.00017   0.00000   0.95606   0.00000   0.00000   0.00000   0.00000 ...
   0.00004   0.00001   0.00000   0.00000   0.00000   0.00000   0.00000   0.00000  -0.16908   0.00000  -0.00002   0.00000 ...
   0.00000   0.00000   0.00000   0.00000   0.00000   0.00000   0.00000   0.00000   0.00000  -0.16901   0.00000   0.00002 ...
   0.00009   0.00001   0.00000   0.00000   0.00000   0.00000   0.00000   0.00000  -0.00002   0.00000  -0.16908   0.00000 ...
   0.00000   0.00000   0.00000   0.00000   0.00000   0.00000   0.00000   0.00000   0.00000   0.00002   0.00000  -0.16897 ...
   ...  only 12  components have been written...
 Atom # 36 - Spin component 1
   0.60773  -1.78770   0.00032   0.00000   0.00065  -0.00218   0.00000  -0.00435
  -1.78770   5.32648  -0.00090   0.00000  -0.00179   0.00611   0.00000   0.01218
   0.00032  -0.00090  -0.31724   0.00000  -0.00024   0.95958   0.00000   0.00120
   0.00000   0.00000   0.00000  -0.31690   0.00000   0.00000   0.95776   0.00000
   0.00065  -0.00179  -0.00024   0.00000  -0.31768   0.00120   0.00000   0.96179
  -0.00218   0.00611   0.95958   0.00000   0.00120  -0.32926   0.00000  -0.00577
   0.00000   0.00000   0.00000   0.95776   0.00000   0.00000  -0.32000   0.00000
  -0.00435   0.01218   0.00120   0.00000   0.96179  -0.00577   0.00000  -0.33984
 Atom # 36 - Spin component 2
   0.60772  -1.78768   0.00032   0.00000   0.00065  -0.00218   0.00000  -0.00435
  -1.78768   5.32643  -0.00090   0.00000  -0.00179   0.00611   0.00000   0.01216
   0.00032  -0.00090  -0.31725   0.00000  -0.00024   0.95962   0.00000   0.00118
   0.00000   0.00000   0.00000  -0.31690   0.00000   0.00000   0.95778   0.00000
   0.00065  -0.00179  -0.00024   0.00000  -0.31769   0.00118   0.00000   0.96182
  -0.00218   0.00611   0.95962   0.00000   0.00118  -0.32945   0.00000  -0.00569
   0.00000   0.00000   0.00000   0.95778   0.00000   0.00000  -0.32007   0.00000
  -0.00435   0.01216   0.00118   0.00000   0.96182  -0.00569   0.00000  -0.33998


 Augmentation waves occupancies Rhoij:
 Atom #  1 - Spin component 1
   0.98902   0.01014   0.00000   0.00000   0.00000   0.00000   0.00000   0.00000  -0.00169   0.00000  -0.00348   0.00000 ...
   0.01014   0.10965   0.00000   0.00000   0.00000   0.00000   0.00000   0.00000   0.00241   0.00000   0.00848   0.00000 ...
   0.00000   0.00000   0.99682   0.00000   0.00102   0.01541   0.00000  -0.00059   0.00000   0.00000   0.00000   0.00000 ...
   0.00000   0.00000   0.00000   0.99628   0.00000   0.00000   0.01639   0.00000   0.00000   0.00000   0.00000   0.00000 ...
   0.00000   0.00000   0.00102   0.00000   0.99704  -0.00060   0.00000   0.01524   0.00000   0.00000   0.00000   0.00000 ...
   0.00000   0.00000   0.01541   0.00000  -0.00060   0.00481   0.00000   0.00020   0.00000   0.00000   0.00000   0.00000 ...
   0.00000   0.00000   0.00000   0.01639   0.00000   0.00000   0.00447   0.00000   0.00000   0.00000   0.00000   0.00000 ...
   0.00000   0.00000  -0.00059   0.00000   0.01524   0.00020   0.00000   0.00419   0.00000   0.00000   0.00000   0.00000 ...
  -0.00169   0.00241   0.00000   0.00000   0.00000   0.00000   0.00000   0.00000   0.03381   0.00000   0.00135   0.00000 ...
   0.00000   0.00000   0.00000   0.00000   0.00000   0.00000   0.00000   0.00000   0.00000   0.06101   0.00000  -0.00303 ...
  -0.00348   0.00848   0.00000   0.00000   0.00000   0.00000   0.00000   0.00000   0.00135   0.00000   0.01560   0.00000 ...
   0.00000   0.00000   0.00000   0.00000   0.00000   0.00000   0.00000   0.00000   0.00000  -0.00303   0.00000   0.05520 ...
   ...  only 12  components have been written...
 Atom #  1 - Spin component 2
   0.93614   0.10812   0.00000   0.00000   0.00000   0.00000   0.00000   0.00000  -0.00191   0.00000  -0.00259   0.00000 ...
   0.10812   0.10398   0.00000   0.00000   0.00000   0.00000   0.00000   0.00000   0.00220   0.00000   0.00605   0.00000 ...
   0.00000   0.00000   0.98252   0.00000   0.00124   0.03710   0.00000  -0.00054   0.00000   0.00000   0.00000   0.00000 ...
   0.00000   0.00000   0.00000   0.98216   0.00000   0.00000   0.03808   0.00000   0.00000   0.00000   0.00000   0.00000 ...
   0.00000   0.00000   0.00124   0.00000   0.98284  -0.00055   0.00000   0.03697   0.00000   0.00000   0.00000   0.00000 ...
   0.00000   0.00000   0.03710   0.00000  -0.00055   0.00519   0.00000   0.00014   0.00000   0.00000   0.00000   0.00000 ...
   0.00000   0.00000   0.00000   0.03808   0.00000   0.00000   0.00497   0.00000   0.00000   0.00000   0.00000   0.00000 ...
   0.00000   0.00000  -0.00054   0.00000   0.03697   0.00014   0.00000   0.00466   0.00000   0.00000   0.00000   0.00000 ...
  -0.00191   0.00220   0.00000   0.00000   0.00000   0.00000   0.00000   0.00000   0.02402   0.00000   0.00096   0.00000 ...
   0.00000   0.00000   0.00000   0.00000   0.00000   0.00000   0.00000   0.00000   0.00000   0.04404   0.00000  -0.00180 ...
  -0.00259   0.00605   0.00000   0.00000   0.00000   0.00000   0.00000   0.00000   0.00096   0.00000   0.01095   0.00000 ...
   0.00000   0.00000   0.00000   0.00000   0.00000   0.00000   0.00000   0.00000   0.00000  -0.00180   0.00000   0.03998 ...
   ...  only 12  components have been written...
 Atom # 36 - Spin component 1
   0.99931   0.01392   0.00205   0.00000  -0.00040  -0.00042   0.00000  -0.00121
   0.01392   0.00034  -0.00224   0.00000  -0.00525  -0.00015   0.00000  -0.00031
   0.00205  -0.00224   1.08698   0.00000   0.00765   0.05313   0.00000   0.00136
   0.00000   0.00000   0.00000   1.12234   0.00000   0.00000   0.05365   0.00000
  -0.00040  -0.00525   0.00765   0.00000   1.10718   0.00133   0.00000   0.05591
  -0.00042  -0.00015   0.05313   0.00000   0.00133   0.00262   0.00000   0.00012
   0.00000   0.00000   0.00000   0.05365   0.00000   0.00000   0.00259   0.00000
  -0.00121  -0.00031   0.00136   0.00000   0.05591   0.00012   0.00000   0.00285
 Atom # 36 - Spin component 2
   0.99930   0.01393   0.00209   0.00000  -0.00034  -0.00041   0.00000  -0.00121
   0.01393   0.00034  -0.00224   0.00000  -0.00527  -0.00015   0.00000  -0.00031
   0.00209  -0.00224   1.08735   0.00000   0.00740   0.05314   0.00000   0.00135
   0.00000   0.00000   0.00000   1.12244   0.00000   0.00000   0.05365   0.00000
  -0.00034  -0.00527   0.00740   0.00000   1.10744   0.00133   0.00000   0.05593
  -0.00041  -0.00015   0.05314   0.00000   0.00133   0.00262   0.00000   0.00012
   0.00000   0.00000   0.00000   0.05365   0.00000   0.00000   0.00259   0.00000
  -0.00121  -0.00031   0.00135   0.00000   0.05593   0.00012   0.00000   0.00285

 "PAW+U" part of augmentation waves occupancies Rhoij:
 Atom #  1 - L=3 ONLY - Spin component 1
   1.22127   0.00000   0.00063   0.00000   0.00032   0.00000   0.00080   0.07541   0.00000   0.00012   0.00000   0.00095   0.00000   0.00089
   0.00000   1.21827   0.00000   0.00011   0.00000  -0.00812   0.00000   0.00000   0.07515   0.00000  -0.00014   0.00000  -0.00144   0.00000
   0.00063   0.00000   1.23144   0.00000  -0.00110   0.00000  -0.00233   0.00021   0.00000   0.07998   0.00000  -0.00057   0.00000  -0.00074
   0.00000   0.00011   0.00000   1.22676   0.00000   0.00364   0.00000   0.00000  -0.00011   0.00000   0.07599   0.00000   0.00173   0.00000
   0.00032   0.00000  -0.00110   0.00000   1.22387   0.00000   0.00388   0.00097   0.00000  -0.00057   0.00000   0.07605   0.00000   0.00216
   0.00000  -0.00812   0.00000   0.00364   0.00000   1.21385   0.00000   0.00000  -0.00148   0.00000   0.00173   0.00000   0.07423   0.00000
   0.00080   0.00000  -0.00233   0.00000   0.00388   0.00000   1.22502   0.00087   0.00000  -0.00074   0.00000   0.00210   0.00000   0.07740
   0.07541   0.00000   0.00021   0.00000   0.00097   0.00000   0.00087   0.00643   0.00000   0.00004   0.00000   0.00048   0.00000  -0.00001
   0.00000   0.07515   0.00000  -0.00011   0.00000  -0.00148   0.00000   0.00000   0.00837   0.00000  -0.00027   0.00000   0.00198   0.00000
   0.00012   0.00000   0.07998   0.00000  -0.00057   0.00000  -0.00074   0.00004   0.00000   0.00701   0.00000   0.00021   0.00000   0.00014
   0.00000  -0.00014   0.00000   0.07599   0.00000   0.00173   0.00000   0.00000  -0.00027   0.00000   0.00706   0.00000   0.00057   0.00000
   0.00095   0.00000  -0.00057   0.00000   0.07605   0.00000   0.00210   0.00048   0.00000   0.00021   0.00000   0.00667   0.00000   0.00025
   0.00000  -0.00144   0.00000   0.00173   0.00000   0.07423   0.00000   0.00000   0.00198   0.00000   0.00057   0.00000   0.00844   0.00000
   0.00089   0.00000  -0.00074   0.00000   0.00216   0.00000   0.07740  -0.00001   0.00000   0.00014   0.00000   0.00025   0.00000   0.00666
 Atom #  1 - L=3 ONLY - Spin component 2
   0.01044   0.00000   0.00016   0.00000   0.00254   0.00000  -0.00053   0.00446   0.00000   0.00007   0.00000   0.00104   0.00000  -0.00024
   0.00000   0.02169   0.00000  -0.00149   0.00000   0.01268   0.00000   0.00000   0.00921   0.00000  -0.00063   0.00000   0.00527   0.00000
   0.00016   0.00000   0.01079   0.00000   0.00163   0.00000   0.00183   0.00005   0.00000   0.00463   0.00000   0.00070   0.00000   0.00070
   0.00000  -0.00149   0.00000   0.01404   0.00000   0.00211   0.00000   0.00000  -0.00064   0.00000   0.00598   0.00000   0.00092   0.00000
   0.00254   0.00000   0.00163   0.00000   0.01134   0.00000   0.00009   0.00104   0.00000   0.00070   0.00000   0.00486   0.00000   0.00004
   0.00000   0.01268   0.00000   0.00211   0.00000   0.02265   0.00000   0.00000   0.00530   0.00000   0.00092   0.00000   0.00961   0.00000
  -0.00053   0.00000   0.00183   0.00000   0.00009   0.00000   0.01031  -0.00024   0.00000   0.00071   0.00000   0.00005   0.00000   0.00443
   0.00446   0.00000   0.00005   0.00000   0.00104   0.00000  -0.00024   0.00191   0.00000   0.00002   0.00000   0.00042   0.00000  -0.00011
   0.00000   0.00921   0.00000  -0.00064   0.00000   0.00530   0.00000   0.00000   0.00391   0.00000  -0.00027   0.00000   0.00221   0.00000
   0.00007   0.00000   0.00463   0.00000   0.00070   0.00000   0.00071   0.00002   0.00000   0.00199   0.00000   0.00030   0.00000   0.00027
   0.00000  -0.00063   0.00000   0.00598   0.00000   0.00092   0.00000   0.00000  -0.00027   0.00000   0.00256   0.00000   0.00040   0.00000
   0.00104   0.00000   0.00070   0.00000   0.00486   0.00000   0.00005   0.00042   0.00000   0.00030   0.00000   0.00208   0.00000   0.00003
   0.00000   0.00527   0.00000   0.00092   0.00000   0.00961   0.00000   0.00000   0.00221   0.00000   0.00040   0.00000   0.00409   0.00000
  -0.00024   0.00000   0.00070   0.00000   0.00004   0.00000   0.00443  -0.00011   0.00000   0.00027   0.00000   0.00003   0.00000   0.00191

 ---------- DFT+U DATA --------------------------------------------------- 

 ====== For Atom     1, occupations for correlated orbitals. lpawu =   3

 Atom   1. Occ. for lpawu and for spin  1 =   6.82002
 Atom   1. Occ. for lpawu and for spin  2 =   0.01720
 => On atom   1,  local Mag. for lpawu is       -6.802820

 == Occupation matrix for correlated orbitals:

 Occupation matrix for spin  1
     0.97296    0.00000    0.00019    0.00000   -0.00128    0.00000   -0.00222
     0.00000    0.97752    0.00000   -0.00038    0.00000    0.00368    0.00000
     0.00019    0.00000    0.96956    0.00000    0.00156    0.00000    0.00066
     0.00000   -0.00038    0.00000    0.97858    0.00000   -0.00032    0.00000
    -0.00128    0.00000    0.00156    0.00000    0.97418    0.00000   -0.00249
     0.00000    0.00368    0.00000   -0.00032    0.00000    0.97650    0.00000
    -0.00222    0.00000    0.00066    0.00000   -0.00249    0.00000    0.97073


 Occupation matrix for spin  2
     0.00177    0.00000    0.00003    0.00000    0.00046    0.00000   -0.00008
     0.00000    0.00370    0.00000   -0.00026    0.00000    0.00221    0.00000
     0.00003    0.00000    0.00182    0.00000    0.00028    0.00000    0.00035
     0.00000   -0.00026    0.00000    0.00241    0.00000    0.00035    0.00000
     0.00046    0.00000    0.00028    0.00000    0.00191    0.00000    0.00001
     0.00000    0.00221    0.00000    0.00035    0.00000    0.00386    0.00000
    -0.00008    0.00000    0.00035    0.00000    0.00001    0.00000    0.00173




---OUTPUT-----------------------------------------------------------------------

 Cartesian coordinates (xcart) [bohr]
  7.52016511295000E+00  0.00000000000000E+00  3.00844399040000E+00
  7.52016511295000E+00  0.00000000000000E+00  9.02533197120000E+00
  0.00000000000000E+00  7.52016511295000E+00  0.00000000000000E+00
  0.00000000000000E+00  7.52016511295000E+00  6.01688798080000E+00
  1.97028325959290E+00  1.23481111154639E+01  3.00844399040000E+00
  1.97028325959290E+00  1.23481111154639E+01  9.02533197120000E+00
  1.30700469663071E+01  2.69221911043610E+00  3.00844399040000E+00
  1.30700469663071E+01  2.69221911043610E+00  9.02533197120000E+00
  2.69221911043610E+00  1.97028325959290E+00  0.00000000000000E+00
  2.69221911043610E+00  1.97028325959290E+00  6.01688798080000E+00
  1.23481111154639E+01  1.30700469663071E+01  0.00000000000000E+00
  1.23481111154639E+01  1.30700469663071E+01  6.01688798080000E+00
  5.31374866881047E+00  1.02905939405608E+01  0.00000000000000E+00
  5.31374866881047E+00  1.02905939405608E+01  6.01688798080000E+00
  9.72658155708953E+00  4.74973628533922E+00  0.00000000000000E+00
  9.72658155708953E+00  4.74973628533922E+00  6.01688798080000E+00
  4.74973628533922E+00  5.31374866881047E+00  3.00844399040000E+00
  4.74973628533922E+00  5.31374866881047E+00  9.02533197120000E+00
  1.02905939405608E+01  9.72658155708953E+00  3.00844399040000E+00
  1.02905939405608E+01  9.72658155708953E+00  9.02533197120000E+00
  8.80611334726445E+00  1.09779370318844E+01  0.00000000000000E+00
  8.80611334726445E+00  1.09779370318844E+01  6.01688798080000E+00
  6.23421687863555E+00  4.06239319401559E+00  0.00000000000000E+00
  6.23421687863555E+00  4.06239319401559E+00  6.01688798080000E+00
  4.06239319401559E+00  8.80611334726445E+00  3.00844399040000E+00
  4.06239319401559E+00  8.80611334726445E+00  9.02533197120000E+00
  1.09779370318844E+01  6.23421687863555E+00  3.00844399040000E+00
  1.09779370318844E+01  6.23421687863555E+00  9.02533197120000E+00
  3.82926807551414E+00  1.34385350568416E+01  0.00000000000000E+00
  3.82926807551414E+00  1.34385350568416E+01  6.01688798080000E+00
  1.12110621503859E+01  1.60179516905835E+00  0.00000000000000E+00
  1.12110621503859E+01  1.60179516905835E+00  6.01688798080000E+00
  1.60179516905835E+00  3.82926807551414E+00  3.00844399040000E+00
  1.60179516905835E+00  3.82926807551414E+00  9.02533197120000E+00
  1.34385350568416E+01  1.12110621503859E+01  3.00844399040000E+00
  1.34385350568416E+01  1.12110621503859E+01  9.02533197120000E+00
 Reduced coordinates (xred)
  5.00000000000000E-01  0.00000000000000E+00  2.50000000000000E-01
  5.00000000000000E-01  0.00000000000000E+00  7.50000000000000E-01
  0.00000000000000E+00  5.00000000000000E-01  0.00000000000000E+00
  0.00000000000000E+00  5.00000000000000E-01  5.00000000000000E-01
  1.31000000000000E-01  8.21000000000000E-01  2.50000000000000E-01
  1.31000000000000E-01  8.21000000000000E-01  7.50000000000000E-01
  8.69000000000000E-01  1.79000000000000E-01  2.50000000000000E-01
  8.69000000000000E-01  1.79000000000000E-01  7.50000000000000E-01
  1.79000000000000E-01  1.31000000000000E-01  0.00000000000000E+00
  1.79000000000000E-01  1.31000000000000E-01  5.00000000000000E-01
  8.21000000000000E-01  8.69000000000000E-01  0.00000000000000E+00
  8.21000000000000E-01  8.69000000000000E-01  5.00000000000000E-01
  3.53300000000000E-01  6.84200000000000E-01  0.00000000000000E+00
  3.53300000000000E-01  6.84200000000000E-01  5.00000000000000E-01
  6.46700000000000E-01  3.15800000000000E-01  0.00000000000000E+00
  6.46700000000000E-01  3.15800000000000E-01  5.00000000000000E-01
  3.15800000000000E-01  3.53300000000000E-01  2.50000000000000E-01
  3.15800000000000E-01  3.53300000000000E-01  7.50000000000000E-01
  6.84200000000000E-01  6.46700000000000E-01  2.50000000000000E-01
  6.84200000000000E-01  6.46700000000000E-01  7.50000000000000E-01
  5.85500000000000E-01  7.29900000000000E-01  0.00000000000000E+00
  5.85500000000000E-01  7.29900000000000E-01  5.00000000000000E-01
  4.14500000000000E-01  2.70100000000000E-01  0.00000000000000E+00
  4.14500000000000E-01  2.70100000000000E-01  5.00000000000000E-01
  2.70100000000000E-01  5.85500000000000E-01  2.50000000000000E-01
  2.70100000000000E-01  5.85500000000000E-01  7.50000000000000E-01
  7.29900000000000E-01  4.14500000000000E-01  2.50000000000000E-01
  7.29900000000000E-01  4.14500000000000E-01  7.50000000000000E-01
  2.54600000000000E-01  8.93500000000000E-01  0.00000000000000E+00
  2.54600000000000E-01  8.93500000000000E-01  5.00000000000000E-01
  7.45400000000000E-01  1.06500000000000E-01  0.00000000000000E+00
  7.45400000000000E-01  1.06500000000000E-01  5.00000000000000E-01
  1.06500000000000E-01  2.54600000000000E-01  2.50000000000000E-01
  1.06500000000000E-01  2.54600000000000E-01  7.50000000000000E-01
  8.93500000000000E-01  7.45400000000000E-01  2.50000000000000E-01
  8.93500000000000E-01  7.45400000000000E-01  7.50000000000000E-01
 Cartesian forces (fcart) [Ha/bohr]; max,rms= 1.26021E-02 4.29225E-03 (free atoms)
  4.81867632215780E-20 -0.00000000000000E+00 -0.00000000000000E+00
  4.81867632215780E-20 -0.00000000000000E+00 -0.00000000000000E+00
  4.81867632249348E-20 -0.00000000000000E+00  1.56179118375568E-04
  4.81867632182212E-20 -0.00000000000000E+00 -1.56179118375568E-04
 -3.02043777469323E-03  4.59106070290172E-03 -0.00000000000000E+00
 -3.20925544028766E-03  4.53177938050331E-03 -0.00000000000000E+00
  3.02043777469323E-03 -4.59106070290172E-03 -0.00000000000000E+00
  3.20925544028766E-03 -4.53177938050331E-03 -0.00000000000000E+00
 -4.39576824988391E-03 -3.11845770948501E-03  2.37372876922930E-04
 -4.39576824988391E-03 -3.11845770948501E-03 -2.37372876922930E-04
  4.39576824988391E-03  3.11845770948501E-03  2.37372876922930E-04
  4.39576824988391E-03  3.11845770948501E-03 -2.37372876922930E-04
 -3.08767577545896E-03  3.41277424215328E-03  5.32080084555895E-04
 -3.08767577545896E-03  3.41277424215328E-03 -5.32080084555895E-04
  3.08767577545896E-03 -3.41277424215328E-03  5.32080084555895E-04
  3.08767577545896E-03 -3.41277424215328E-03 -5.32080084555895E-04
 -3.26906780432039E-03 -4.03555454468851E-03 -0.00000000000000E+00
 -3.43315690796900E-03 -3.37295100309042E-03 -0.00000000000000E+00
  3.26906780432039E-03  4.03555454468851E-03 -0.00000000000000E+00
  3.43315690796900E-03  3.37295100309042E-03 -0.00000000000000E+00
  1.97914409871385E-03 -8.22343173011013E-04 -2.09561217068936E-04
  1.97914409871385E-03 -8.22343173011013E-04  2.09561217068936E-04
 -1.97914409871385E-03  8.22343173011013E-04 -2.09561217068936E-04
 -1.97914409871385E-03  8.22343173011013E-04  2.09561217068936E-04
  9.87881203848160E-04  1.96782097163843E-03 -0.00000000000000E+00
  1.08246892368582E-03  2.15517432112942E-03  2.14807008413386E-27
 -9.87881203848160E-04 -1.96782097163843E-03 -0.00000000000000E+00
 -1.08246892368582E-03 -2.15517432112942E-03 -2.14807008413386E-27
  5.62361290260963E-03 -1.24755849918301E-02 -3.48939579746956E-04
  5.62361290260963E-03 -1.24755849918301E-02  3.48939579746956E-04
 -5.62361290260963E-03  1.24755849918301E-02 -3.48939579746956E-04
 -5.62361290260963E-03  1.24755849918301E-02  3.48939579746956E-04
  1.26020616336022E-02  6.00149175177020E-03 -0.00000000000000E+00
  1.25483840119709E-02  5.96029768870500E-03 -0.00000000000000E+00
 -1.26020616336022E-02 -6.00149175177020E-03 -0.00000000000000E+00
 -1.25483840119709E-02 -5.96029768870500E-03 -0.00000000000000E+00
 Gradient of E wrt nuclear positions in reduced coordinates (gred)
 -7.24744831369786E-19 -0.00000000000000E+00 -0.00000000000000E+00
 -7.24744831369786E-19 -0.00000000000000E+00 -0.00000000000000E+00
 -7.24744831420273E-19 -0.00000000000000E+00 -1.87942452041179E-03
 -7.24744831319299E-19 -0.00000000000000E+00  1.87942452041179E-03
  4.54283815581687E-02 -6.90510690587944E-02 -0.00000000000000E+00
  4.82682616011926E-02 -6.81594583936943E-02 -0.00000000000000E+00
 -4.54283815581687E-02  6.90510690587944E-02 -0.00000000000000E+00
 -4.82682616011926E-02  6.81594583936943E-02 -0.00000000000000E+00
  6.61138060747805E-02  4.69026337461583E-02 -2.85649202025099E-03
  6.61138060747805E-02  4.69026337461583E-02  2.85649202025099E-03
 -6.61138060747805E-02 -4.69026337461583E-02 -2.85649202025099E-03
 -6.61138060747805E-02 -4.69026337461583E-02  2.85649202025099E-03
  4.64396632934146E-02 -5.13292515884309E-02 -6.40293253117483E-03
  4.64396632934146E-02 -5.13292515884309E-02  6.40293253117483E-03
 -4.64396632934146E-02  5.13292515884309E-02 -6.40293253117483E-03
 -4.64396632934146E-02  5.13292515884309E-02  6.40293253117483E-03
  4.91678593078365E-02  6.06960729967467E-02  0.00000000000000E+00
  5.16358136131835E-02  5.07302969222606E-02  0.00000000000000E+00
 -4.91678593078365E-02 -6.06960729967467E-02 -0.00000000000000E+00
 -5.16358136131835E-02 -5.07302969222606E-02 -0.00000000000000E+00
 -2.97669808092976E-02  1.23683128811001E-02  2.52181273644781E-03
 -2.97669808092976E-02  1.23683128811001E-02 -2.52181273644781E-03
  2.97669808092976E-02 -1.23683128811001E-02  2.52181273644781E-03
  2.97669808092976E-02 -1.23683128811001E-02 -2.52181273644781E-03
 -1.48580595298360E-02 -2.95966772388933E-02 -0.00000000000000E+00
 -1.62806900715093E-02 -3.24145334841663E-02 -2.58493941422821E-26
  1.48580595298360E-02  2.95966772388933E-02  0.00000000000000E+00
  1.62806900715093E-02  3.24145334841663E-02  2.58493941422821E-26
 -8.45809951178808E-02  1.87636918038407E-01  4.19906072680972E-03
 -8.45809951178808E-02  1.87636918038407E-01 -4.19906072680972E-03
  8.45809951178808E-02 -1.87636918038407E-01  4.19906072680973E-03
  8.45809951178808E-02 -1.87636918038407E-01 -4.19906072680972E-03
 -1.89539168496522E-01 -9.02644177946388E-02 -0.00000000000000E+00
 -1.88731839341446E-01 -8.96448454827917E-02 -0.00000000000000E+00
  1.89539168496522E-01  9.02644177946388E-02  0.00000000000000E+00
  1.88731839341446E-01  8.96448454827917E-02  0.00000000000000E+00
 Total energy (etotal) [Ha]= -4.75212151958576E+02

--- Iteration: (   2/1000) Internal Cycle: (1/1)
--------------------------------------------------------------------------------

---SELF-CONSISTENT-FIELD CONVERGENCE--------------------------------------------

--- !BeginCycle
iteration_state: {dtset: 1, itime: 2, icycle: 1, }
solver: {iscf: 17, nstep: 100, nline: 4, wfoptalg: 114, }
tolerances: {toldff: 1.00E-04, }
...

     iter   Etot(hartree)      deltaE(h)  residm     nres2    diffor    maxfor
 ETOT  1  -475.21397792557    -4.752E+02 4.473E-06 1.934E-02 2.040E-03 1.058E-02
 ETOT  2  -475.21392331106     5.461E-05 1.225E-06 1.681E-03 4.220E-04 1.019E-02
 ETOT  3  -475.21391451033     8.801E-06 5.183E-07 7.108E-04 2.260E-04 1.038E-02
 ETOT  4  -475.21391749825    -2.988E-06 6.259E-07 3.739E-05 3.228E-04 1.009E-02
 ETOT  5  -475.21391837774    -8.795E-07 1.600E-07 1.593E-05 4.674E-05 1.013E-02
 ETOT  6  -475.21391825208     1.257E-07 4.858E-07 3.146E-06 2.556E-05 1.012E-02

 At SCF step    6, forces are converged : 
  for the second time, max diff in force=  2.556E-05 < toldff=  1.000E-04

 Cartesian components of stress tensor (hartree/bohr^3)
  sigma(1 1)=  4.02350442E-04  sigma(3 2)=  0.00000000E+00
  sigma(2 2)=  4.04408237E-04  sigma(3 1)=  0.00000000E+00
  sigma(3 3)= -2.41088893E-05  sigma(2 1)=  8.16324847E-08


--- !ResultsGS
iteration_state: {dtset: 1, itime: 2, icycle: 1, }
comment   : Summary of ground state results
lattice_vectors:
- [ 15.0403302,   0.0000000,   0.0000000, ]
- [  0.0000000,  15.0403302,   0.0000000, ]
- [  0.0000000,   0.0000000,  12.0337760, ]
lattice_lengths: [  15.04033,   15.04033,   12.03378, ]
lattice_angles: [ 90.000,  90.000,  90.000, ] # degrees, (23, 13, 12)
lattice_volume:   2.7221789E+03
convergence: {deltae:  1.257E-07, res2:  3.146E-06, residm:  4.858E-07, diffor:  2.556E-05, }
etotal    :  -4.75213918E+02
entropy   :   0.00000000E+00
fermie    :   2.22903486E-01
cartesian_stress_tensor: # hartree/bohr^3
- [  4.02350442E-04,   8.16324847E-08,   0.00000000E+00, ]
- [  8.16324847E-08,   4.04408237E-04,   0.00000000E+00, ]
- [  0.00000000E+00,   0.00000000E+00,  -2.41088893E-05, ]
pressure_GPa:  -7.6754E+00
xred      :
- [  5.0000E-01,  -1.7041E-21,   2.5000E-01, Eu]
- [  5.0000E-01,  -1.7041E-21,   7.5000E-01, Sr]
- [  3.2038E-21,   5.0000E-01,   1.2978E-05, Sr]
- [  3.2038E-21,   5.0000E-01,   4.9999E-01, Sr]
- [  1.3080E-01,   8.2131E-01,   2.5000E-01, Li]
- [  1.3079E-01,   8.2130E-01,   7.5000E-01, Li]
- [  8.6920E-01,   1.7869E-01,   2.5000E-01, Li]
- [  8.6921E-01,   1.7870E-01,   7.5000E-01, Li]
- [  1.7871E-01,   1.3079E-01,   1.9726E-05, Li]
- [  1.7871E-01,   1.3079E-01,   4.9998E-01, Li]
- [  8.2129E-01,   8.6921E-01,   1.9726E-05, Li]
- [  8.2129E-01,   8.6921E-01,   4.9998E-01, Li]
- [  3.5309E-01,   6.8443E-01,   4.4216E-05, Al]
- [  3.5309E-01,   6.8443E-01,   4.9996E-01, Al]
- [  6.4691E-01,   3.1557E-01,   4.4216E-05, Al]
- [  6.4691E-01,   3.1557E-01,   4.9996E-01, Al]
- [  3.1558E-01,   3.5303E-01,   2.5000E-01, Al]
- [  3.1557E-01,   3.5308E-01,   7.5000E-01, Al]
- [  6.8442E-01,   6.4697E-01,   2.5000E-01, Al]
- [  6.8443E-01,   6.4692E-01,   7.5000E-01, Al]
- [  5.8563E-01,   7.2985E-01,  -1.7414E-05,  N]
- [  5.8563E-01,   7.2985E-01,   5.0002E-01,  N]
- [  4.1437E-01,   2.7015E-01,  -1.7414E-05,  N]
- [  4.1437E-01,   2.7015E-01,   5.0002E-01,  N]
- [  2.7017E-01,   5.8563E-01,   2.5000E-01,  N]
- [  2.7017E-01,   5.8564E-01,   7.5000E-01,  N]
- [  7.2983E-01,   4.1437E-01,   2.5000E-01,  N]
- [  7.2983E-01,   4.1436E-01,   7.5000E-01,  N]
- [  2.5497E-01,   8.9267E-01,  -2.8997E-05,  O]
- [  2.5497E-01,   8.9267E-01,   5.0003E-01,  O]
- [  7.4503E-01,   1.0733E-01,  -2.8997E-05,  O]
- [  7.4503E-01,   1.0733E-01,   5.0003E-01,  O]
- [  1.0734E-01,   2.5500E-01,   2.5000E-01,  O]
- [  1.0733E-01,   2.5500E-01,   7.5000E-01,  O]
- [  8.9266E-01,   7.4500E-01,   2.5000E-01,  O]
- [  8.9267E-01,   7.4500E-01,   7.5000E-01,  O]
cartesian_forces: # hartree/bohr
- [ -0.00000000E+00,   2.40933816E-20,   1.50583635E-21, ]
- [ -0.00000000E+00,   2.40933816E-20,   1.50583635E-21, ]
- [ -0.00000000E+00,   2.40933816E-20,   1.11939207E-04, ]
- [ -0.00000000E+00,   2.40933816E-20,  -1.11939207E-04, ]
- [ -2.73387084E-03,   3.94575884E-03,   1.50583635E-21, ]
- [ -2.92091156E-03,   3.86238707E-03,   1.50583528E-21, ]
- [  2.73387084E-03,  -3.94575884E-03,   1.50583635E-21, ]
- [  2.92091156E-03,  -3.86238707E-03,   1.50583742E-21, ]
- [ -3.75275560E-03,  -2.82547766E-03,   2.11243160E-04, ]
- [ -3.75275560E-03,  -2.82547766E-03,  -2.11243160E-04, ]
- [  3.75275560E-03,   2.82547766E-03,   2.11243160E-04, ]
- [  3.75275560E-03,   2.82547766E-03,  -2.11243160E-04, ]
- [ -1.68277426E-03,   1.53280757E-03,   3.75397291E-04, ]
- [ -1.68277426E-03,   1.53280757E-03,  -3.75397291E-04, ]
- [  1.68277426E-03,  -1.53280757E-03,   3.75397291E-04, ]
- [  1.68277426E-03,  -1.53280757E-03,  -3.75397291E-04, ]
- [ -1.40944908E-03,  -2.43466063E-03,   1.50583635E-21, ]
- [ -1.57360842E-03,  -1.84324791E-03,   1.50583648E-21, ]
- [  1.40944908E-03,   2.43466063E-03,   1.50583635E-21, ]
- [  1.57360842E-03,   1.84324791E-03,   1.50583622E-21, ]
- [  1.68146615E-03,  -3.25274092E-04,  -1.51552915E-04, ]
- [  1.68146615E-03,  -3.25274092E-04,   1.51552915E-04, ]
- [ -1.68146615E-03,   3.25274092E-04,  -1.51552915E-04, ]
- [ -1.68146615E-03,   3.25274092E-04,   1.51552915E-04, ]
- [  5.13158941E-04,   1.58876718E-03,   1.50583635E-21, ]
- [  6.27072162E-04,   1.80260056E-03,   1.50584065E-21, ]
- [ -5.13158941E-04,  -1.58876718E-03,   1.50583635E-21, ]
- [ -6.27072162E-04,  -1.80260056E-03,   1.50583205E-21, ]
- [  4.01535563E-03,  -1.00048115E-02,  -2.84793847E-04, ]
- [  4.01535563E-03,  -1.00048115E-02,   2.84793847E-04, ]
- [ -4.01535563E-03,   1.00048115E-02,  -2.84793847E-04, ]
- [ -4.01535563E-03,   1.00048115E-02,   2.84793847E-04, ]
- [  1.01187238E-02,   4.41992234E-03,   1.50583608E-21, ]
- [  1.00692202E-02,   4.39541258E-03,   1.50583635E-21, ]
- [ -1.01187238E-02,  -4.41992234E-03,   1.50583662E-21, ]
- [ -1.00692202E-02,  -4.39541258E-03,   1.50583635E-21, ]
force_length_stats: {min:   2.41403931E-20, max:   1.10419330E-02, mean:   4.42355740E-03, }
...

 Integrated electronic and magnetization densities in atomic spheres:
 ---------------------------------------------------------------------
 Radius=ratsph(iatom), smearing ratsm=  0.0000. Diff(up-dn)=approximate z local magnetic moment.
 Atom    Radius    up_density   dn_density  Total(up+dn)  Diff(up-dn)
    1   2.52170    10.803568     3.926891     14.730459     6.876678
    2   2.20670     3.671747     3.669982      7.341729     0.001765
    3   2.20670     3.668376     3.667803      7.336179     0.000573
    4   2.20670     3.668376     3.667803      7.336179     0.000573
    5   1.60265     1.063256     1.063149      2.126406     0.000107
    6   1.60265     1.063124     1.063369      2.126493    -0.000245
    7   1.60265     1.063256     1.063149      2.126406     0.000107
    8   1.60265     1.063124     1.063369      2.126493    -0.000245
    9   1.60265     1.063231     1.063035      2.126266     0.000196
   10   1.60265     1.063231     1.063035      2.126266     0.000196
   11   1.60265     1.063231     1.063035      2.126266     0.000196
   12   1.60265     1.063231     1.063035      2.126266     0.000196
   13   1.90363     0.468621     0.468188      0.936809     0.000433
   14   1.90363     0.468621     0.468188      0.936809     0.000433
   15   1.90363     0.468621     0.468188      0.936809     0.000433
   16   1.90363     0.468621     0.468188      0.936809     0.000433
   17   1.90363     0.474606     0.473941      0.948546     0.000665
   18   1.90363     0.474040     0.474845      0.948885    -0.000805
   19   1.90363     0.474606     0.473941      0.948546     0.000665
   20   1.90363     0.474040     0.474845      0.948885    -0.000805
   21   1.20000     1.237015     1.241795      2.478810    -0.004779
   22   1.20000     1.237015     1.241795      2.478810    -0.004779
   23   1.20000     1.237015     1.241795      2.478810    -0.004779
   24   1.20000     1.237015     1.241795      2.478810    -0.004779
   25   1.20000     1.238340     1.238298      2.476639     0.000042
   26   1.20000     1.237611     1.238865      2.476475    -0.001254
   27   1.20000     1.238340     1.238298      2.476639     0.000042
   28   1.20000     1.237611     1.238865      2.476475    -0.001254
   29   1.41465     2.281322     2.288484      4.569806    -0.007162
   30   1.41465     2.281322     2.288484      4.569806    -0.007162
   31   1.41465     2.281322     2.288484      4.569806    -0.007162
   32   1.41465     2.281322     2.288484      4.569806    -0.007162
   33   1.41465     2.288774     2.288921      4.577695    -0.000147
   34   1.41465     2.288607     2.288897      4.577504    -0.000290
   35   1.41465     2.288774     2.288921      4.577695    -0.000147
   36   1.41465     2.288607     2.288897      4.577504    -0.000290
 ---------------------------------------------------------------------
  Sum:             62.269542    55.439059    117.708600     6.830483
 Total magnetization (from the atomic spheres):             6.830483
 Total magnetization (exact up - dn):                       7.000068

 PAW TEST:
 ==== Compensation charge inside spheres ============
 The following values must be close to each other ...
 Compensation charge over spherical meshes =     15.999891876860762
 Compensation charge over fine fft grid    =     16.000000508496367

 ==== Results concerning PAW augmentation regions ====

 Total pseudopotential strength Dij (hartree):
 Atom #  1 - Spin component 1
  -0.74622  -0.08229   0.00000   0.00000   0.00000   0.00000   0.00000   0.00000  -0.00000   0.00000   0.00006   0.00000 ...
  -0.08229  -0.10056   0.00000   0.00000   0.00000   0.00000   0.00000   0.00000   0.00000   0.00000   0.00001   0.00000 ...
   0.00000   0.00000  -0.71427   0.00000   0.00008   0.14801   0.00000  -0.00019   0.00000   0.00000   0.00000   0.00000 ...
   0.00000   0.00000   0.00000  -0.71420   0.00000   0.00000   0.14805   0.00000   0.00000   0.00000   0.00000   0.00000 ...
   0.00000   0.00000   0.00008   0.00000  -0.71407  -0.00019   0.00000   0.14744   0.00000   0.00000   0.00000   0.00000 ...
   0.00000   0.00000   0.14801   0.00000  -0.00019   0.88835   0.00000   0.00010   0.00000   0.00000   0.00000   0.00000 ...
   0.00000   0.00000   0.00000   0.14805   0.00000   0.00000   0.88852   0.00000   0.00000   0.00000   0.00000   0.00000 ...
   0.00000   0.00000  -0.00019   0.00000   0.14744   0.00010   0.00000   0.88856   0.00000   0.00000   0.00000   0.00000 ...
  -0.00000   0.00000   0.00000   0.00000   0.00000   0.00000   0.00000   0.00000  -0.18509   0.00000  -0.00001   0.00000 ...
   0.00000   0.00000   0.00000   0.00000   0.00000   0.00000   0.00000   0.00000   0.00000  -0.18508   0.00000   0.00000 ...
   0.00006   0.00001   0.00000   0.00000   0.00000   0.00000   0.00000   0.00000  -0.00001   0.00000  -0.18507   0.00000 ...
   0.00000   0.00000   0.00000   0.00000   0.00000   0.00000   0.00000   0.00000   0.00000   0.00000   0.00000  -0.18507 ...
   ...  only 12  components have been written...
 Atom #  1 - Spin component 2
  -0.67252  -0.07164   0.00000   0.00000   0.00000   0.00000   0.00000   0.00000   0.00004   0.00000   0.00009   0.00000 ...
  -0.07164  -0.09835   0.00000   0.00000   0.00000   0.00000   0.00000   0.00000   0.00001   0.00000   0.00001   0.00000 ...
   0.00000   0.00000  -0.65021   0.00000   0.00015   0.08491   0.00000  -0.00026   0.00000   0.00000   0.00000   0.00000 ...
   0.00000   0.00000   0.00000  -0.64996   0.00000   0.00000   0.08479   0.00000   0.00000   0.00000   0.00000   0.00000 ...
   0.00000   0.00000   0.00015   0.00000  -0.64982  -0.00026   0.00000   0.08417   0.00000   0.00000   0.00000   0.00000 ...
   0.00000   0.00000   0.08491   0.00000  -0.00026   0.95566   0.00000   0.00017   0.00000   0.00000   0.00000   0.00000 ...
   0.00000   0.00000   0.00000   0.08479   0.00000   0.00000   0.95599   0.00000   0.00000   0.00000   0.00000   0.00000 ...
   0.00000   0.00000  -0.00026   0.00000   0.08417   0.00017   0.00000   0.95605   0.00000   0.00000   0.00000   0.00000 ...
   0.00004   0.00001   0.00000   0.00000   0.00000   0.00000   0.00000   0.00000  -0.16908   0.00000  -0.00002   0.00000 ...
   0.00000   0.00000   0.00000   0.00000   0.00000   0.00000   0.00000   0.00000   0.00000  -0.16901   0.00000   0.00002 ...
   0.00009   0.00001   0.00000   0.00000   0.00000   0.00000   0.00000   0.00000  -0.00002   0.00000  -0.16908   0.00000 ...
   0.00000   0.00000   0.00000   0.00000   0.00000   0.00000   0.00000   0.00000   0.00000   0.00002   0.00000  -0.16897 ...
   ...  only 12  components have been written...
 Atom # 36 - Spin component 1
   0.60777  -1.78785   0.00032   0.00000   0.00065  -0.00216   0.00000  -0.00439
  -1.78785   5.32699  -0.00089   0.00000  -0.00181   0.00604   0.00000   0.01227
   0.00032  -0.00089  -0.31736   0.00000  -0.00024   0.96022   0.00000   0.00122
   0.00000   0.00000   0.00000  -0.31702   0.00000   0.00000   0.95840   0.00000
   0.00065  -0.00181  -0.00024   0.00000  -0.31782   0.00122   0.00000   0.96248
  -0.00216   0.00604   0.96022   0.00000   0.00122  -0.33245   0.00000  -0.00586
[...]
                       1.000000  1.000000  1.000000  1.000000  1.000000  1.000000
                       1.000000  1.000000  1.000000  1.000000  1.000000  1.000000
                       1.000000  1.000000  1.000000  1.000000  1.000000  1.000000
                       1.000000  1.000000  1.000000  1.000000  1.000000  1.000000
                       1.000000  1.000000  1.000000  1.000000  1.000000  1.000000
                       1.000000  1.000000  1.000000  1.000000  1.000000  1.000000
                       1.000000  1.000000  1.000000  1.000000  1.000000  1.000000
                       1.000000  1.000000  1.000000  1.000000  1.000000  1.000000
                       1.000000  1.000000  1.000000  1.000000  1.000000  1.000000
                       1.000000  1.000000  1.000000  1.000000  1.000000  1.000000
                       1.000000  1.000000  1.000000  1.000000  1.000000  1.000000
                       1.000000  1.000000  1.000000  1.000000  1.000000  1.000000
                       1.000000  1.000000  1.000000  1.000000  1.000000  1.000000
                       1.000000  1.000000  1.000000  1.000000  0.000000  0.000000
                       0.000000  0.000000  0.000000  0.000000  0.000000  0.000000
                       0.000000  0.000000  0.000000  0.000000  0.000000  0.000000
                       0.000000  0.000000  0.000000  0.000000  0.000000  0.000000
                       0.000000  0.000000  0.000000  0.000000  0.000000  0.000000
                       0.000000
           occopt           2
        optforces           1
        paral_kgb           1
        pawecutdg      2.00000000E+01 Hartree
            prtwf          -1
            rprim      1.5040330226E+01  0.0000000000E+00  0.0000000000E+00
                       0.0000000000E+00  1.5040330226E+01  0.0000000000E+00
                       0.0000000000E+00  0.0000000000E+00  1.2033775962E+01
          spgroup          10
           spinat      0.0000000000E+00  0.0000000000E+00  7.0000000000E+00
                       0.0000000000E+00  0.0000000000E+00  0.0000000000E+00
                       0.0000000000E+00  0.0000000000E+00  0.0000000000E+00
                       0.0000000000E+00  0.0000000000E+00  0.0000000000E+00
                       0.0000000000E+00  0.0000000000E+00  0.0000000000E+00
                       0.0000000000E+00  0.0000000000E+00  0.0000000000E+00
                       0.0000000000E+00  0.0000000000E+00  0.0000000000E+00
                       0.0000000000E+00  0.0000000000E+00  0.0000000000E+00
                       0.0000000000E+00  0.0000000000E+00  0.0000000000E+00
                       0.0000000000E+00  0.0000000000E+00  0.0000000000E+00
                       0.0000000000E+00  0.0000000000E+00  0.0000000000E+00
                       0.0000000000E+00  0.0000000000E+00  0.0000000000E+00
                       0.0000000000E+00  0.0000000000E+00  0.0000000000E+00
                       0.0000000000E+00  0.0000000000E+00  0.0000000000E+00
                       0.0000000000E+00  0.0000000000E+00  0.0000000000E+00
                       0.0000000000E+00  0.0000000000E+00  0.0000000000E+00
                       0.0000000000E+00  0.0000000000E+00  0.0000000000E+00
                       0.0000000000E+00  0.0000000000E+00  0.0000000000E+00
                       0.0000000000E+00  0.0000000000E+00  0.0000000000E+00
                       0.0000000000E+00  0.0000000000E+00  0.0000000000E+00
                       0.0000000000E+00  0.0000000000E+00  0.0000000000E+00
                       0.0000000000E+00  0.0000000000E+00  0.0000000000E+00
                       0.0000000000E+00  0.0000000000E+00  0.0000000000E+00
                       0.0000000000E+00  0.0000000000E+00  0.0000000000E+00
                       0.0000000000E+00  0.0000000000E+00  0.0000000000E+00
                       0.0000000000E+00  0.0000000000E+00  0.0000000000E+00
                       0.0000000000E+00  0.0000000000E+00  0.0000000000E+00
                       0.0000000000E+00  0.0000000000E+00  0.0000000000E+00
                       0.0000000000E+00  0.0000000000E+00  0.0000000000E+00
                       0.0000000000E+00  0.0000000000E+00  0.0000000000E+00
                       0.0000000000E+00  0.0000000000E+00  0.0000000000E+00
                       0.0000000000E+00  0.0000000000E+00  0.0000000000E+00
                       0.0000000000E+00  0.0000000000E+00  0.0000000000E+00
                       0.0000000000E+00  0.0000000000E+00  0.0000000000E+00
                       0.0000000000E+00  0.0000000000E+00  0.0000000000E+00
                       0.0000000000E+00  0.0000000000E+00  0.0000000000E+00
           strten      3.9234408260E-04  3.9382261060E-04 -2.6786536396E-05
                       0.0000000000E+00  0.0000000000E+00 -9.3008703226E-07
           symrel      1  0  0   0  1  0   0  0  1      -1  0  0   0 -1  0   0  0 -1
                      -1  0  0   0 -1  0   0  0  1       1  0  0   0  1  0   0  0 -1
            tnons      0.0000000  0.0000000  0.0000000    -0.0000000  0.0000000  0.5000000
                      -0.0000000  0.0000000  0.0000000     0.0000000  0.0000000  0.5000000
           toldff      1.00000000E-04
           tolmxf      1.00000000E-03
            typat      1  2  2  2  3  3  3  3  3  3  3  3  4  4  4  4  4  4  4  4
                       5  5  5  5  5  5  5  5  6  6  6  6  6  6  6  6
            upawu      2.57245278E-01  0.00000000E+00  0.00000000E+00  0.00000000E+00  0.00000000E+00  0.00000000E+00 Hartree
          usepawu           1
           useylm           1
         wfoptalg         114
           xangst      3.9794999826E+00  0.0000000000E+00  1.5919999930E+00
                       3.9794999826E+00  0.0000000000E+00  4.7759999791E+00
                      -4.4181325072E-16  3.9794999826E+00  7.5719316456E-04
                      -4.4181325072E-16  3.9794999826E+00  3.1832427929E+00
                       1.0143247790E+00  6.5690571805E+00  1.5919999930E+00
                       1.0111621850E+00  6.5663566219E+00  4.7759999791E+00
                       6.9446751862E+00  1.3899427847E+00  1.5919999930E+00
                       6.9478377802E+00  1.3926433433E+00  4.7759999791E+00
                       1.3927589218E+00  1.0130984915E+00  1.8301360789E-03
                       1.3927589218E+00  1.0130984915E+00  3.1821698500E+00
                       6.5662410434E+00  6.9459014737E+00  1.8301360789E-03
                       6.5662410434E+00  6.9459014737E+00  3.1821698500E+00
                       2.7994832609E+00  5.4313804085E+00  1.3556939332E-03
                       2.7994832609E+00  5.4313804085E+00  3.1826442921E+00
                       5.1595167043E+00  2.5276195567E+00  1.3556939332E-03
                       5.1595167043E+00  2.5276195567E+00  3.1826442921E+00
                       2.5294160873E+00  2.7943317516E+00  1.5919999930E+00
                       2.5291677171E+00  2.7979241240E+00  4.7759999791E+00
                       5.4295838779E+00  5.1646682136E+00  1.5919999930E+00
                       5.4298322481E+00  5.1610758412E+00  4.7759999791E+00
                       4.6504816076E+00  5.8173135707E+00 -4.5713094171E-04
                       4.6504816076E+00  5.8173135707E+00  3.1844571170E+00
                       3.3085183576E+00  2.1416863945E+00 -4.5713094171E-04
                       3.3085183576E+00  2.1416863945E+00  3.1844571170E+00
                       2.1504989183E+00  4.6488692930E+00  1.5919999930E+00
                       2.1522159787E+00  4.6510079274E+00  4.7759999791E+00
                       5.8085010469E+00  3.3101306722E+00  1.5919999930E+00
                       5.8067839865E+00  3.3079920379E+00  4.7759999791E+00
                       2.0097207165E+00  7.0596015934E+00 -5.2637370622E-04
                       2.0097207165E+00  7.0596015934E+00  3.1845263598E+00
                       5.9492792487E+00  8.9939837181E-01 -5.2637370622E-04
                       5.9492792487E+00  8.9939837181E-01  3.1845263598E+00
                       8.9776047283E-01  2.0143457930E+00  1.5919999930E+00
                       8.9722774381E-01  2.0175379074E+00  4.7759999791E+00
                       7.0612394924E+00  5.9446541722E+00  1.5919999930E+00
                       7.0617722214E+00  5.9414620578E+00  4.7759999791E+00
            xcart      7.5201651129E+00  0.0000000000E+00  3.0084439904E+00
                       7.5201651129E+00  0.0000000000E+00  9.0253319712E+00
                      -8.3490604574E-16  7.5201651130E+00  1.4308877107E-03
                      -8.3490604574E-16  7.5201651130E+00  6.0154570931E+00
                       1.9167960422E+00  1.2413719022E+01  3.0084439904E+00
                       1.9108196057E+00  1.2408615706E+01  9.0253319712E+00
                       1.3123534184E+01  2.6266112034E+00  3.0084439904E+00
                       1.3129510620E+01  2.6317145197E+00  9.0253319712E+00
                       2.6319329314E+00  1.9144786945E+00  3.4584559751E-03
                       2.6319329314E+00  1.9144786945E+00  6.0134295248E+00
                       1.2408397294E+01  1.3125851531E+01  3.4584559751E-03
                       1.2408397294E+01  1.3125851531E+01  6.0134295248E+00
                       5.2902566767E+00  1.0263821496E+01  2.5618902537E-03
                       5.2902566767E+00  1.0263821496E+01  6.0143260905E+00
                       9.7500735492E+00  4.7765087302E+00  2.5618902537E-03
                       9.7500735492E+00  4.7765087302E+00  6.0143260905E+00
                       4.7799036811E+00  5.2805217350E+00  3.0084439904E+00
                       4.7794343295E+00  5.2873103350E+00  9.0253319712E+00
                       1.0260426545E+01  9.7598084909E+00  3.0084439904E+00
                       1.0260895896E+01  9.7530198909E+00  9.0253319712E+00
                       8.7881366244E+00  1.0993129478E+01 -8.6385228669E-04
                       8.7881366244E+00  1.0993129478E+01  6.0177518331E+00
                       6.2521936015E+00  4.0472007481E+00 -8.6385228669E-04
                       6.2521936015E+00  4.0472007481E+00  6.0177518331E+00
                       4.0638540047E+00  8.7850897913E+00  3.0084439904E+00
                       4.0670987786E+00  8.7891312246E+00  9.0253319712E+00
                       1.0976476221E+01  6.2552404346E+00  3.0084439904E+00
                       1.0973231447E+01  6.2511990013E+00  9.0253319712E+00
                       3.7978217579E+00  1.3340713619E+01 -9.9470214830E-04
                       3.7978217579E+00  1.3340713619E+01  6.0178826829E+00
                       1.1242508468E+01  1.6996166071E+00 -9.9470214830E-04
                       1.1242508468E+01  1.6996166071E+00  6.0178826829E+00
                       1.6965214266E+00  3.8065618856E+00  3.0084439904E+00
                       1.6955147146E+00  3.8125941077E+00  9.0253319712E+00
                       1.3343808799E+01  1.1233768340E+01  3.0084439904E+00
                       1.3344815511E+01  1.1227736118E+01  9.0253319712E+00
             xred      5.0000000000E-01  0.0000000000E+00  2.5000000000E-01
                       5.0000000000E-01  0.0000000000E+00  7.5000000000E-01
                      -5.5511151231E-17  5.0000000000E-01  1.1890596229E-04
                      -5.5511151231E-17  5.0000000000E-01  4.9988109404E-01
                       1.2744374714E-01  8.2536213208E-01  2.5000000000E-01
                       1.2704638641E-01  8.2502282329E-01  7.5000000000E-01
                       8.7255625286E-01  1.7463786792E-01  2.5000000000E-01
                       8.7295361359E-01  1.7497717671E-01  7.5000000000E-01
                       1.7499169844E-01  1.2728967155E-01  2.8739574230E-04
                       1.7499169844E-01  1.2728967155E-01  4.9971260426E-01
                       8.2500830156E-01  8.7271032845E-01  2.8739574230E-04
                       8.2500830156E-01  8.7271032845E-01  4.9971260426E-01
                       3.5173806674E-01  6.8241995631E-01  2.1289163617E-04
                       3.5173806674E-01  6.8241995631E-01  4.9978710836E-01
                       6.4826193326E-01  3.1758004369E-01  2.1289163617E-04
                       6.4826193326E-01  3.1758004369E-01  4.9978710836E-01
                       3.1780576685E-01  3.5109081089E-01  2.5000000000E-01
                       3.1777456065E-01  3.5154217066E-01  7.5000000000E-01
                       6.8219423315E-01  6.4890918911E-01  2.5000000000E-01
                       6.8222543935E-01  6.4845782934E-01  7.5000000000E-01
                       5.8430476542E-01  7.3091011385E-01 -7.1785638145E-05
                       5.8430476542E-01  7.3091011385E-01  5.0007178564E-01
                       4.1569523458E-01  2.6908988615E-01 -7.1785638145E-05
                       4.1569523458E-01  2.6908988615E-01  5.0007178564E-01
                       2.7019712624E-01  5.8410218787E-01  2.5000000000E-01
                       2.7041286444E-01  5.8437089429E-01  7.5000000000E-01
                       7.2980287376E-01  4.1589781213E-01  2.5000000000E-01
                       7.2958713556E-01  4.1562910571E-01  7.5000000000E-01
                       2.5250920032E-01  8.8699605783E-01 -8.2659187895E-05
                       2.5250920032E-01  8.8699605783E-01  5.0008265919E-01
                       7.4749079968E-01  1.1300394217E-01 -8.2659187895E-05
                       7.4749079968E-01  1.1300394217E-01  5.0008265919E-01
                       1.1279815011E-01  2.5309031308E-01  2.5000000000E-01
                       1.1273121595E-01  2.5349138286E-01  7.5000000000E-01
                       8.8720184989E-01  7.4690968692E-01  2.5000000000E-01
                       8.8726878405E-01  7.4650861714E-01  7.5000000000E-01
            znucl       63.00000   38.00000    3.00000   13.00000    7.00000    8.00000

================================================================================


- Timing analysis has been suppressed with timopt=0



================================================================================

 Suggested references for the acknowledgment of ABINIT usage.

 The users of ABINIT have little formal obligations with respect to the ABINIT group
 (those specified in the GNU General Public License, http://www.gnu.org/copyleft/gpl.txt).
 However, it is common practice in the scientific literature,
 to acknowledge the efforts of people that have made the research possible.
 In this spirit, please find below suggested citations of work written by ABINIT developers,
 corresponding to implementations inside of ABINIT that you have used in the present run.
 Note also that it will be of great value to readers of publications presenting these results,
 to read papers enabling them to understand the theoretical formalism and details
 of the ABINIT implementation.
 For information on why they are suggested, see also https://docs.abinit.org/theory/acknowledgments.
-
- [1] Gamma and beta cerium: DFT+U calculations of ground-state parameters.
- B. Amadon, F. Jollet and M. Torrent, Phys. Rev. B 77, 155104 (2008).
- Comment: DFT+U calculations, usepawu/=0. Strong suggestion to cite this paper.
- DOI and bibtex: see https://docs.abinit.org/theory/bibliography/#amadon2008a
-
- [2] Implementation of the Projector Augmented-Wave Method in the ABINIT code.
- M. Torrent, F. Jollet, F. Bottin, G. Zerah, and X. Gonze Comput. Mat. Science 42, 337, (2008).
- Comment: PAW calculations. Strong suggestion to cite this paper.
- DOI and bibtex: see https://docs.abinit.org/theory/bibliography/#torrent2008
-
- [3] Libxc: A library of exchange and correlation functionals for density functional theory.
- M.A.L. Marques, M.J.T. Oliveira, T. Burnus, Computer Physics Communications 183, 2227 (2012).
- Comment: to be cited when LibXC is used (negative value of ixc)
- Strong suggestion to cite this paper.
- DOI and bibtex: see https://docs.abinit.org/theory/bibliography/#marques2012
-
- [4] Large scale ab initio calculations based on three levels of parallelization
- F. Bottin, S. Leroux, A. Knyazev, G. Zerah, Comput. Mat. Science 42, 329, (2008).
- Comment: in case LOBPCG algorithm is used (wfoptalg=4/14/114).
- Strong suggestion to cite this paper in your publications.
- This paper is also available at http://www.arxiv.org/abs/0707.3405
- DOI and bibtex: see https://docs.abinit.org/theory/bibliography/#bottin2008
-
- [5] The Abinit project: Impact, environment and recent developments.
- Computer Phys. Comm. 248, 107042 (2020).
- X.Gonze, B. Amadon, G. Antonius, F.Arnardi, L.Baguet, J.-M.Beuken,
- J.Bieder, F.Bottin, J.Bouchet, E.Bousquet, N.Brouwer, F.Bruneval,
- G.Brunin, T.Cavignac, J.-B. Charraud, Wei Chen, M.Cote, S.Cottenier,
- J.Denier, G.Geneste, Ph.Ghosez, M.Giantomassi, Y.Gillet, O.Gingras,
- D.R.Hamann, G.Hautier, Xu He, N.Helbig, N.Holzwarth, Y.Jia, F.Jollet,
- W.Lafargue-Dit-Hauret, K.Lejaeghere, M.A.L.Marques, A.Martin, C.Martins,
- H.P.C. Miranda, F.Naccarato, K. Persson, G.Petretto, V.Planes, Y.Pouillon,
- S.Prokhorenko, F.Ricci, G.-M.Rignanese, A.H.Romero, M.M.Schmitt, M.Torrent,
- M.J.van Setten, B.Van Troeye, M.J.Verstraete, G.Zerah and J.W.Zwanzig
- Comment: the fifth generic paper describing the ABINIT project.
- Note that a version of this paper, that is not formatted for Computer Phys. Comm. 
- is available at https://www.abinit.org/sites/default/files/ABINIT20.pdf .
- The licence allows the authors to put it on the Web.
- DOI and bibtex: see https://docs.abinit.org/theory/bibliography/#gonze2020
-
- [6] ABINIT: Overview, and focus on selected capabilities
- J. Chem. Phys. 152, 124102 (2020).
- A. Romero, D.C. Allan, B. Amadon, G. Antonius, T. Applencourt, L.Baguet,
- J.Bieder, F.Bottin, J.Bouchet, E.Bousquet, F.Bruneval,
- G.Brunin, D.Caliste, M.Cote,
- J.Denier, C. Dreyer, Ph.Ghosez, M.Giantomassi, Y.Gillet, O.Gingras,
- D.R.Hamann, G.Hautier, F.Jollet, G. Jomard,
- A.Martin, 
- H.P.C. Miranda, F.Naccarato, G.Petretto, N.A. Pike, V.Planes,
- S.Prokhorenko, T. Rangel, F.Ricci, G.-M.Rignanese, M.Royo, M.Stengel, M.Torrent,
- M.J.van Setten, B.Van Troeye, M.J.Verstraete, J.Wiktor, J.W.Zwanziger, and X.Gonze.
- Comment: a global overview of ABINIT, with focus on selected capabilities .
- Note that a version of this paper, that is not formatted for J. Chem. Phys 
- is available at https://www.abinit.org/sites/default/files/ABINIT20_JPC.pdf .
- The licence allows the authors to put it on the Web.
- DOI and bibtex: see https://docs.abinit.org/theory/bibliography/#romero2020
-
- [7] Recent developments in the ABINIT software package.
- Computer Phys. Comm. 205, 106 (2016).
- X.Gonze, F.Jollet, F.Abreu Araujo, D.Adams, B.Amadon, T.Applencourt,
- C.Audouze, J.-M.Beuken, J.Bieder, A.Bokhanchuk, E.Bousquet, F.Bruneval
- D.Caliste, M.Cote, F.Dahm, F.Da Pieve, M.Delaveau, M.Di Gennaro,
- B.Dorado, C.Espejo, G.Geneste, L.Genovese, A.Gerossier, M.Giantomassi,
- Y.Gillet, D.R.Hamann, L.He, G.Jomard, J.Laflamme Janssen, S.Le Roux,
- A.Levitt, A.Lherbier, F.Liu, I.Lukacevic, A.Martin, C.Martins,
- M.J.T.Oliveira, S.Ponce, Y.Pouillon, T.Rangel, G.-M.Rignanese,
- A.H.Romero, B.Rousseau, O.Rubel, A.A.Shukri, M.Stankovski, M.Torrent,
- M.J.Van Setten, B.Van Troeye, M.J.Verstraete, D.Waroquier, J.Wiktor,
- B.Xu, A.Zhou, J.W.Zwanziger.
- Comment: the fourth generic paper describing the ABINIT project.
- Note that a version of this paper, that is not formatted for Computer Phys. Comm. 
- is available at https://www.abinit.org/sites/default/files/ABINIT16.pdf .
- The licence allows the authors to put it on the Web.
- DOI and bibtex: see https://docs.abinit.org/theory/bibliography/#gonze2016
-
- Proc.   0 individual time (sec): cpu=        307.6  wall=        317.9

================================================================================

 Calculation completed.
.Delivered   0 WARNINGs and   0 COMMENTs to log file.
+Overall time at end (sec) : cpu=        615.2  wall=        635.7
