natom:   36
displacements:
- atom:    1
  displacement:
    [   0.0078083052247003,  0.0000000000000000,  0.0062474290326436 ]
- atom:    1
  displacement:
    [   0.0000000000000000,  0.0100000000000000,  0.0000000000000000 ]
- atom:    2
  displacement:
    [   0.0078083052247003,  0.0000000000000000,  0.0062474290326436 ]
- atom:    2
  displacement:
    [   0.0000000000000000,  0.0100000000000000,  0.0000000000000000 ]
- atom:    3
  displacement:
    [   0.0078083052247003,  0.0000000000000000,  0.0062474290326436 ]
- atom:    3
  displacement:
    [  -0.0078083052247003,  0.0000000000000000, -0.0062474290326436 ]
- atom:    3
  displacement:
    [   0.0000000000000000,  0.0100000000000000,  0.0000000000000000 ]
- atom:    5
  displacement:
    [   0.0078083052247003,  0.0000000000000000,  0.0062474290326436 ]
- atom:    5
  displacement:
    [  -0.0078083052247003,  0.0000000000000000, -0.0062474290326436 ]
- atom:    5
  displacement:
    [   0.0000000000000000,  0.0100000000000000,  0.0000000000000000 ]
- atom:    5
  displacement:
    [   0.0000000000000000, -0.0100000000000000,  0.0000000000000000 ]
- atom:    6
  displacement:
    [   0.0078083052247003,  0.0000000000000000,  0.0062474290326436 ]
- atom:    6
  displacement:
    [  -0.0078083052247003,  0.0000000000000000, -0.0062474290326436 ]
- atom:    6
  displacement:
    [   0.0000000000000000,  0.0100000000000000,  0.0000000000000000 ]
- atom:    6
  displacement:
    [   0.0000000000000000, -0.0100000000000000,  0.0000000000000000 ]
- atom:    9
  displacement:
    [   0.0100000000000000,  0.0000000000000000,  0.0000000000000000 ]
- atom:    9
  displacement:
    [  -0.0100000000000000,  0.0000000000000000,  0.0000000000000000 ]
- atom:    9
  displacement:
    [   0.0000000000000000,  0.0100000000000000,  0.0000000000000000 ]
- atom:    9
  displacement:
    [   0.0000000000000000, -0.0100000000000000,  0.0000000000000000 ]
- atom:    9
  displacement:
    [   0.0000000000000000,  0.0000000000000000,  0.0100000000000000 ]
- atom:    9
  displacement:
    [   0.0000000000000000,  0.0000000000000000, -0.0100000000000000 ]
- atom:   13
  displacement:
    [   0.0100000000000000,  0.0000000000000000,  0.0000000000000000 ]
- atom:   13
  displacement:
    [  -0.0100000000000000,  0.0000000000000000,  0.0000000000000000 ]
- atom:   13
  displacement:
    [   0.0000000000000000,  0.0100000000000000,  0.0000000000000000 ]
- atom:   13
  displacement:
    [   0.0000000000000000, -0.0100000000000000,  0.0000000000000000 ]
- atom:   13
  displacement:
    [   0.0000000000000000,  0.0000000000000000,  0.0100000000000000 ]
- atom:   13
  displacement:
    [   0.0000000000000000,  0.0000000000000000, -0.0100000000000000 ]
- atom:   17
  displacement:
    [   0.0078083052247003,  0.0000000000000000,  0.0062474290326436 ]
- atom:   17
  displacement:
    [  -0.0078083052247003,  0.0000000000000000, -0.0062474290326436 ]
- atom:   17
  displacement:
    [   0.0000000000000000,  0.0100000000000000,  0.0000000000000000 ]
- atom:   17
  displacement:
    [   0.0000000000000000, -0.0100000000000000,  0.0000000000000000 ]
- atom:   18
  displacement:
    [   0.0078083052247003,  0.0000000000000000,  0.0062474290326436 ]
- atom:   18
  displacement:
    [  -0.0078083052247003,  0.0000000000000000, -0.0062474290326436 ]
- atom:   18
  displacement:
    [   0.0000000000000000,  0.0100000000000000,  0.0000000000000000 ]
- atom:   18
  displacement:
    [   0.0000000000000000, -0.0100000000000000,  0.0000000000000000 ]
- atom:   21
  displacement:
    [   0.0100000000000000,  0.0000000000000000,  0.0000000000000000 ]
- atom:   21
  displacement:
    [  -0.0100000000000000,  0.0000000000000000,  0.0000000000000000 ]
- atom:   21
  displacement:
    [   0.0000000000000000,  0.0100000000000000,  0.0000000000000000 ]
- atom:   21
  displacement:
    [   0.0000000000000000, -0.0100000000000000,  0.0000000000000000 ]
- atom:   21
  displacement:
    [   0.0000000000000000,  0.0000000000000000,  0.0100000000000000 ]
- atom:   21
  displacement:
    [   0.0000000000000000,  0.0000000000000000, -0.0100000000000000 ]
- atom:   25
  displacement:
    [   0.0078083052247003,  0.0000000000000000,  0.0062474290326436 ]
- atom:   25
  displacement:
    [  -0.0078083052247003,  0.0000000000000000, -0.0062474290326436 ]
- atom:   25
  displacement:
    [   0.0000000000000000,  0.0100000000000000,  0.0000000000000000 ]
- atom:   25
  displacement:
    [   0.0000000000000000, -0.0100000000000000,  0.0000000000000000 ]
- atom:   26
  displacement:
    [   0.0078083052247003,  0.0000000000000000,  0.0062474290326436 ]
- atom:   26
  displacement:
    [  -0.0078083052247003,  0.0000000000000000, -0.0062474290326436 ]
- atom:   26
  displacement:
    [   0.0000000000000000,  0.0100000000000000,  0.0000000000000000 ]
- atom:   26
  displacement:
    [   0.0000000000000000, -0.0100000000000000,  0.0000000000000000 ]
- atom:   29
  displacement:
    [   0.0100000000000000,  0.0000000000000000,  0.0000000000000000 ]
- atom:   29
  displacement:
    [  -0.0100000000000000,  0.0000000000000000,  0.0000000000000000 ]
- atom:   29
  displacement:
    [   0.0000000000000000,  0.0100000000000000,  0.0000000000000000 ]
- atom:   29
  displacement:
    [   0.0000000000000000, -0.0100000000000000,  0.0000000000000000 ]
- atom:   29
  displacement:
    [   0.0000000000000000,  0.0000000000000000,  0.0100000000000000 ]
- atom:   29
  displacement:
    [   0.0000000000000000,  0.0000000000000000, -0.0100000000000000 ]
- atom:   33
  displacement:
    [   0.0078083052247003,  0.0000000000000000,  0.0062474290326436 ]
- atom:   33
  displacement:
    [  -0.0078083052247003,  0.0000000000000000, -0.0062474290326436 ]
- atom:   33
  displacement:
    [   0.0000000000000000,  0.0100000000000000,  0.0000000000000000 ]
- atom:   33
  displacement:
    [   0.0000000000000000, -0.0100000000000000,  0.0000000000000000 ]
- atom:   34
  displacement:
    [   0.0078083052247003,  0.0000000000000000,  0.0062474290326436 ]
- atom:   34
  displacement:
    [  -0.0078083052247003,  0.0000000000000000, -0.0062474290326436 ]
- atom:   34
  displacement:
    [   0.0000000000000000,  0.0100000000000000,  0.0000000000000000 ]
- atom:   34
  displacement:
    [   0.0000000000000000, -0.0100000000000000,  0.0000000000000000 ]
lattice:
- [     7.959000000001850,     0.000000000000000,     0.000000000000000 ] # a
- [     0.000000000000000,     7.959000000001850,     0.000000000000000 ] # b
- [     0.000000000000000,     0.000000000000000,     6.367999999991055 ] # c
points:
- symbol: Eu # 1
  coordinates: [  0.500000000000000,  0.000000000000000,  0.250000000000000 ]
  mass: 151.964000
- symbol: Sr # 2
  coordinates: [  0.500000000000000,  0.000000000000000,  0.750000000000000 ]
  mass: 87.620000
- symbol: Sr # 3
  coordinates: [  1.000000000000000,  0.500000000000000,  0.000118905962291 ]
  mass: 87.620000
- symbol: Sr # 4
  coordinates: [  1.000000000000000,  0.500000000000000,  0.499881094037709 ]
  mass: 87.620000
- symbol: Li # 5
  coordinates: [  0.127443747136336,  0.825362132084248,  0.250000000000000 ]
  mass: 6.941000
- symbol: Li # 6
  coordinates: [  0.127046386413835,  0.825022823292154,  0.750000000000000 ]
  mass: 6.941000
- symbol: Li # 7
  coordinates: [  0.872556252863664,  0.174637867915753,  0.250000000000000 ]
  mass: 6.941000
- symbol: Li # 8
  coordinates: [  0.872953613586165,  0.174977176707846,  0.750000000000000 ]
  mass: 6.941000
- symbol: Li # 9
  coordinates: [  0.174991698444894,  0.127289671553810,  0.000287395742297 ]
  mass: 6.941000
- symbol: Li # 10
  coordinates: [  0.174991698444894,  0.127289671553810,  0.499712604257702 ]
  mass: 6.941000
- symbol: Li # 11
  coordinates: [  0.825008301555106,  0.872710328446190,  0.000287395742297 ]
  mass: 6.941000
- symbol: Li # 12
  coordinates: [  0.825008301555106,  0.872710328446190,  0.499712604257702 ]
  mass: 6.941000
- symbol: Al # 13
  coordinates: [  0.351738066736682,  0.682419956311794,  0.000212891636166 ]
  mass: 26.981539
- symbol: Al # 14
  coordinates: [  0.351738066736682,  0.682419956311794,  0.499787108363833 ]
  mass: 26.981539
- symbol: Al # 15
  coordinates: [  0.648261933263318,  0.317580043688206,  0.000212891636166 ]
  mass: 26.981539
- symbol: Al # 16
  coordinates: [  0.648261933263318,  0.317580043688206,  0.499787108363833 ]
  mass: 26.981539
- symbol: Al # 17
  coordinates: [  0.317805766848934,  0.351090810885098,  0.250000000000000 ]
  mass: 26.981539
- symbol: Al # 18
  coordinates: [  0.317774560648684,  0.351542170657265,  0.750000000000000 ]
  mass: 26.981539
- symbol: Al # 19
  coordinates: [  0.682194233151066,  0.648909189114902,  0.250000000000000 ]
  mass: 26.981539
- symbol: Al # 20
  coordinates: [  0.682225439351316,  0.648457829342735,  0.750000000000000 ]
  mass: 26.981539
- symbol: N  # 21
  coordinates: [  0.584304765415255,  0.730910113850238,  0.999928214361855 ]
  mass: 14.006700
- symbol: N  # 22
  coordinates: [  0.584304765415255,  0.730910113850238,  0.500071785638145 ]
  mass: 14.006700
- symbol: N  # 23
  coordinates: [  0.415695234584745,  0.269089886149762,  0.999928214361855 ]
  mass: 14.006700
- symbol: N  # 24
  coordinates: [  0.415695234584745,  0.269089886149762,  0.500071785638145 ]
  mass: 14.006700
- symbol: N  # 25
  coordinates: [  0.270197126239829,  0.584102187873766,  0.250000000000000 ]
  mass: 14.006700
- symbol: N  # 26
  coordinates: [  0.270412864443837,  0.584370894294534,  0.750000000000000 ]
  mass: 14.006700
- symbol: N  # 27
  coordinates: [  0.729802873760171,  0.415897812126234,  0.250000000000000 ]
  mass: 14.006700
- symbol: N  # 28
  coordinates: [  0.729587135556163,  0.415629105705466,  0.750000000000000 ]
  mass: 14.006700
- symbol: O  # 29
  coordinates: [  0.252509200318137,  0.886996057828155,  0.999917340812105 ]
  mass: 15.999400
- symbol: O  # 30
  coordinates: [  0.252509200318137,  0.886996057828155,  0.500082659187895 ]
  mass: 15.999400
- symbol: O  # 31
  coordinates: [  0.747490799681863,  0.113003942171844,  0.999917340812105 ]
  mass: 15.999400
- symbol: O  # 32
  coordinates: [  0.747490799681863,  0.113003942171844,  0.500082659187895 ]
  mass: 15.999400
- symbol: O  # 33
  coordinates: [  0.112798150113795,  0.253090313076697,  0.250000000000000 ]
  mass: 15.999400
- symbol: O  # 34
  coordinates: [  0.112731215948185,  0.253491382862998,  0.750000000000000 ]
  mass: 15.999400
- symbol: O  # 35
  coordinates: [  0.887201849886205,  0.746909686923303,  0.250000000000000 ]
  mass: 15.999400
- symbol: O  # 36
  coordinates: [  0.887268784051815,  0.746508617137002,  0.750000000000000 ]
  mass: 15.999400