36   
63   

1    
  0.0078083052247003   0.0000000000000000   0.0062474290326436
  -0.0312345419    0.0037308467   -0.0423277474
  -0.0117706220   -0.0016734642    0.0287919563
   0.0039636238    0.0002048060   -0.0016747648
   0.0039638572    0.0002175448    0.0018832409
  -0.0041524984   -0.0092007795   -0.0019811315
  -0.0043609387   -0.0118532838    0.0016169170
   0.0181825516    0.0164240601   -0.0020118528
   0.0106988255    0.0143233432    0.0016408393
   0.0148468411   -0.0173776609    0.0008354599
   0.0100546184   -0.0145779233    0.0008320850
  -0.0052839274    0.0104466351   -0.0061848438
  -0.0003440745    0.0075638754    0.0079205690
   0.0240499084    0.0416461296   -0.0000922073
   0.0171315876    0.0282557114    0.0039025855
  -0.0359427789   -0.0238480741   -0.0068925687
  -0.0290310991   -0.0102197057    0.0107836637
  -0.0184848852    0.0315013077   -0.0054336181
  -0.0206099568    0.0344865703    0.0040407077
   0.0197115158   -0.0477275105   -0.0054687911
   0.0220755623   -0.0350744011    0.0040452403
  -0.0151014554   -0.0127635210    0.0110189928
  -0.0159511308   -0.0126308555   -0.0085976640
   0.0277379778    0.0138411601    0.0107527838
   0.0286659489    0.0135522285   -0.0084444934
   0.0104754992   -0.0367524926    0.0024526636
   0.0177681545   -0.0188114106   -0.0030381986
  -0.0093434777    0.0303953358    0.0024590984
  -0.0168164068    0.0142728600   -0.0030466240
   0.0184595714    0.0799065642    0.0000228304
   0.0186708914    0.0816804219    0.0009983975
  -0.0153086579   -0.0884553727    0.0031881618
  -0.0151775499   -0.0900884264   -0.0019508927
  -0.0813075971    0.0403051956    0.0018226007
  -0.0723599682    0.0296043342   -0.0018398552
   0.0689462652   -0.0333259164    0.0018431545
   0.0671783666   -0.0279781322   -0.0018666948

1    
  0.0000000000000000   0.0100000000000000   0.0000000000000000
   0.0047906351   -0.0733078625   -0.0000000000
  -0.0021184641   -0.0109543523   -0.0000000000
  -0.0000301158    0.0048265816   -0.0017795463
  -0.0000301158    0.0048265816    0.0017795463
  -0.0080776634   -0.0123481612   -0.0000000000
  -0.0066587887   -0.0125021928   -0.0000000000
   0.0142147938    0.0132084397   -0.0000000000
   0.0083507396    0.0136365990   -0.0000000000
   0.0050745766   -0.0155274014   -0.0050247540
   0.0050745766   -0.0155274014    0.0050247540
  -0.0102271565    0.0095333491   -0.0019705426
  -0.0102271565    0.0095333491    0.0019705426
   0.0359597310    0.0405808431    0.0032717433
   0.0359597310    0.0405808431   -0.0032717433
  -0.0169474212   -0.0113759273   -0.0142888033
  -0.0169474212   -0.0113759273    0.0142888033
  -0.0335383103    0.0633745941   -0.0000000000
  -0.0262479023    0.0423736108   -0.0000000000
   0.0049685750   -0.0161037582   -0.0000000000
   0.0164793434   -0.0272680482   -0.0000000000
  -0.0209485139   -0.0160950906    0.0100033967
  -0.0209485139   -0.0160950906   -0.0100033967
   0.0227364127    0.0104451481    0.0092219094
   0.0227364127    0.0104451481   -0.0092219094
   0.0081159248   -0.0433413969   -0.0000000000
   0.0164067470   -0.0220420803   -0.0000000000
  -0.0118133623    0.0237497587   -0.0000000000
  -0.0182147365    0.0110284362   -0.0000000000
   0.0141306150    0.0888149101    0.0003799207
   0.0141306150    0.0888149101   -0.0003799207
  -0.0197537152   -0.0811611040    0.0017765306
  -0.0197537152   -0.0811611040   -0.0017765306
  -0.0715108379    0.0332939641   -0.0000000000
  -0.0666678168    0.0275594364   -0.0000000000
   0.0786910462   -0.0404076046   -0.0000000000
   0.0728412520   -0.0300319992   -0.0000000000

2    
  0.0078083052247003   0.0000000000000000   0.0062474290326436
  -0.0117100016   -0.0016492842    0.0286497978
  -0.0365499131    0.0037177615   -0.0387297189
   0.0035035788   -0.0000399645   -0.0018044355
   0.0035018788   -0.0000456162    0.0017224039
  -0.0083167591   -0.0117517624    0.0012429125
  -0.0007009289   -0.0095415733   -0.0018521336
   0.0139800122    0.0138548277    0.0012485239
   0.0143697878    0.0166378270   -0.0018678875
   0.0099961973   -0.0143760548   -0.0064984115
   0.0147038978   -0.0170167941    0.0079851391
  -0.0004875247    0.0079273258    0.0010506413
  -0.0053396539    0.0106437719    0.0005027680
   0.0183753217    0.0279447885   -0.0072669836
   0.0247134515    0.0403407522    0.0109570155
  -0.0283639196   -0.0115477092    0.0001427272
  -0.0346990682   -0.0241649284    0.0036242303
  -0.0183047260    0.0393302977    0.0032760539
  -0.0207427805    0.0262161262   -0.0049209582
   0.0199541895   -0.0399078667    0.0032823053
   0.0218897970   -0.0433221469   -0.0049542780
  -0.0162984677   -0.0124859825    0.0105213866
  -0.0156186702   -0.0125996753   -0.0082455550
   0.0281466684    0.0137257779    0.0112603436
   0.0273792308    0.0139621035   -0.0090950544
   0.0105270975   -0.0355708615   -0.0027326727
   0.0177357565   -0.0193509177    0.0020983890
  -0.0092922858    0.0315774197   -0.0027336684
  -0.0168562166    0.0137469722    0.0021042408
   0.0193150523    0.0821562917    0.0037663101
   0.0188865432    0.0805219649   -0.0032059854
  -0.0147129380   -0.0894740741   -0.0007409294
  -0.0146168885   -0.0879643458    0.0015516683
  -0.0771325502    0.0375709958   -0.0016363425
  -0.0749413391    0.0323062640    0.0014592087
   0.0730930213   -0.0360936854   -0.0016360573
   0.0646131491   -0.0252780252    0.0014750062

2    
  0.0000000000000000   0.0100000000000000   0.0000000000000000
  -0.0021447819   -0.0108725223   -0.0000000000
   0.0047267937   -0.0784431830   -0.0000000000
  -0.0000006380    0.0045065997   -0.0017557680
  -0.0000006380    0.0045065997    0.0017557680
  -0.0104934677   -0.0122007478   -0.0000000000
  -0.0045153842   -0.0126525154   -0.0000000000
   0.0117873704    0.0133972463   -0.0000000000
   0.0105121694    0.0134824777   -0.0000000000
   0.0050419767   -0.0151270559   -0.0018112308
   0.0050419767   -0.0151270559    0.0018112308
  -0.0102536060    0.0099271182   -0.0052072333
  -0.0102536060    0.0099271182    0.0052072333
   0.0355897890    0.0399201890   -0.0147434605
   0.0355897890    0.0399201890    0.0147434605
  -0.0173250806   -0.0120267384    0.0040629602
  -0.0173250806   -0.0120267384   -0.0040629602
  -0.0233442040    0.0465137592   -0.0000000000
  -0.0353614004    0.0587948012   -0.0000000000
   0.0149451072   -0.0328015828   -0.0000000000
   0.0075497539   -0.0110188016   -0.0000000000
  -0.0206775260   -0.0158770969    0.0110781974
  -0.0206775260   -0.0158770969   -0.0110781974
   0.0230334065    0.0106265410    0.0085855255
   0.0230334065    0.0106265410   -0.0085855255
   0.0087833537   -0.0384480196   -0.0000000000
   0.0153953171   -0.0257502836   -0.0000000000
  -0.0110522526    0.0286856639   -0.0000000000
  -0.0192721168    0.0073076661   -0.0000000000
   0.0142011490    0.0894498232    0.0025938103
   0.0142011490    0.0894498232   -0.0025938103
  -0.0197202287   -0.0805674426   -0.0003632753
  -0.0197202287   -0.0805674426    0.0003632753
  -0.0722350691    0.0359132430   -0.0000000000
  -0.0662536117    0.0259254249   -0.0000000000
   0.0779321063   -0.0377747588   -0.0000000000
   0.0732618325   -0.0317217421   -0.0000000000

3    
  0.0078083052247003   0.0000000000000000   0.0062474290326436
   0.0040296001   -0.0000197343    0.0000921351
   0.0035084083   -0.0000082203    0.0000795220
  -0.0624130335   -0.0033759944   -0.0476496417
  -0.0073921765    0.0012551563    0.0316971449
  -0.0118015776   -0.0081894901    0.0021692931
  -0.0110359781   -0.0135126503   -0.0004406744
   0.0076749961    0.0124133318   -0.0004714302
   0.0068600222    0.0176167546    0.0021817014
   0.0080104389   -0.0149025098   -0.0053531709
   0.0081753644   -0.0131052477    0.0050160920
  -0.0072726566    0.0101159051   -0.0053957436
  -0.0071336046    0.0119224079    0.0050615581
   0.0452431108    0.0371066433   -0.0107525075
   0.0322271653    0.0296036716    0.0094058319
  -0.0079361662   -0.0150626074   -0.0106910089
  -0.0208887802   -0.0224630223    0.0093813150
  -0.0013622820    0.0287663201    0.0092250269
  -0.0166803652    0.0309067099   -0.0052817036
   0.0238856693   -0.0435684699   -0.0052666749
   0.0389269290   -0.0453309782    0.0090978270
  -0.0292411691   -0.0115569200    0.0122655487
  -0.0258697457   -0.0121412186   -0.0126934882
   0.0145098173    0.0147804201    0.0122318493
   0.0178808963    0.0141566925   -0.0126490392
   0.0067773516   -0.0353117567    0.0007994446
   0.0159552079   -0.0169390748    0.0022043819
  -0.0112187066    0.0331837712    0.0022183756
  -0.0209069506    0.0146974410    0.0003839825
   0.0146586628    0.0821557189    0.0027566690
   0.0161690202    0.0826767409   -0.0026846813
  -0.0193285784   -0.0879592209    0.0028957432
  -0.0177998098   -0.0874295194   -0.0028041872
  -0.0727880841    0.0398799665   -0.0001844845
  -0.0651764831    0.0305024835    0.0017226028
   0.0796893293   -0.0351291799    0.0017312212
   0.0720641578   -0.0257343199   -0.0002988301

3    
 -0.0078083052247003   0.0000000000000000  -0.0062474290326436
  -0.0040191633    0.0000278333   -0.0000897673
  -0.0035061275    0.0000009616   -0.0001006517
   0.0623237012    0.0033741112    0.0443959498
   0.0074007595   -0.0012577745   -0.0281593331
  -0.0105124507   -0.0173516420   -0.0021772710
  -0.0040093176   -0.0126550885    0.0004619213
   0.0146200827    0.0132042782    0.0004447440
   0.0082035630    0.0084892666   -0.0021978996
   0.0072663306   -0.0101097463   -0.0016778619
   0.0071285109   -0.0119150980    0.0019923807
  -0.0079936677    0.0148913977   -0.0016017057
  -0.0081656531    0.0130952417    0.0019263671
   0.0079163001    0.0150505760   -0.0001885963
   0.0208766388    0.0224465366    0.0014676473
  -0.0452311245   -0.0370893811   -0.0000684375
  -0.0322094612   -0.0295914586    0.0014124257
  -0.0366710002    0.0502835513   -0.0090711700
  -0.0261184184    0.0386490647    0.0052566852
   0.0144911049   -0.0356626470    0.0052814120
   0.0035409362   -0.0240391776   -0.0092761829
  -0.0145151095   -0.0147803299    0.0071930788
  -0.0178894753   -0.0141679153   -0.0067702239
   0.0292486862    0.0115573287    0.0072323061
   0.0258879403    0.0121511764   -0.0068447345
   0.0134030319   -0.0317396784   -0.0004747895
   0.0186317663   -0.0161690992   -0.0022340205
  -0.0085780361    0.0339740601   -0.0021991828
  -0.0140417853    0.0182990207   -0.0007290861
   0.0193334734    0.0879402240   -0.0005603803
   0.0178139336    0.0874226552    0.0004771458
  -0.0146630942   -0.0821338306   -0.0007409313
  -0.0161600769   -0.0826682674    0.0006252388
  -0.0772944324    0.0336458088    0.0003142665
  -0.0743688194    0.0270800932   -0.0017440610
   0.0705042341   -0.0385175782   -0.0017255159
   0.0673562197   -0.0317344729    0.0001502335

3    
  0.0000000000000000   0.0100000000000000   0.0000000000000000
   0.0002495625    0.0048722100    0.0000030658
  -0.0000552890    0.0044902402   -0.0000164864
  -0.0042478512   -0.0487749577   -0.0015905375
   0.0016132976   -0.0124748963    0.0017752642
  -0.0068726589   -0.0065839655    0.0047523179
  -0.0032402024   -0.0068455453   -0.0047899931
   0.0153672295    0.0189568241   -0.0046773151
   0.0117419951    0.0192591038    0.0046961206
   0.0030767142   -0.0037048523   -0.0035349917
   0.0061807830   -0.0087114370    0.0035217396
  -0.0123004419    0.0213934032   -0.0034810512
  -0.0091374059    0.0163223870    0.0034734986
   0.0375122381    0.0268584989   -0.0053725212
   0.0270788965    0.0271816481    0.0053724474
  -0.0155781674   -0.0250773337   -0.0054883742
  -0.0259542160   -0.0248316876    0.0054668509
  -0.0299592315    0.0331990596   -0.0046160740
  -0.0321488468    0.0282111665    0.0046099044
   0.0082705860   -0.0461030445    0.0046159632
   0.0105068673   -0.0414242923   -0.0046316551
  -0.0181249576   -0.0127282681    0.0096122886
  -0.0190832080   -0.0125058121   -0.0096324700
   0.0256349321    0.0135718977    0.0098354156
   0.0246903101    0.0137934606   -0.0098377033
   0.0089465732   -0.0258720893   -0.0004188108
   0.0163098182   -0.0088508455    0.0004167645
  -0.0109571353    0.0412372138    0.0004266532
  -0.0183890007    0.0241917249   -0.0004461835
   0.0122716020    0.0782235332    0.0010221365
   0.0158295329    0.0822525027   -0.0010372567
  -0.0216309315   -0.0918542287    0.0011383930
  -0.0181332603   -0.0878717078   -0.0011464701
  -0.0699141803    0.0392087991    0.0025614035
  -0.0646610055    0.0313067783   -0.0025368878
   0.0802515852   -0.0342379144   -0.0024296740
   0.0748554667   -0.0260775734    0.0023842281

5    
  0.0078083052247003   0.0000000000000000   0.0062474290326436
   0.0070346139    0.0024013668   -0.0020456138
   0.0027837999    0.0005034241    0.0013361240
  -0.0010570700    0.0062457073    0.0008174226
  -0.0031469482    0.0003848765    0.0008173344
  -0.0419479337   -0.0111648366   -0.0334415128
  -0.0092193196   -0.0134405953    0.0043127643
   0.0113616028    0.0113069148   -0.0003600827
   0.0071508902    0.0129174049    0.0001878628
   0.0062792069   -0.0140903365   -0.0028481289
   0.0068644455   -0.0093562077    0.0040680649
  -0.0024700548    0.0116384373    0.0000091002
  -0.0070097435    0.0116395044    0.0011781120
   0.0273246416    0.0266889842   -0.0097203458
   0.0396464257    0.0151045514    0.0154950314
  -0.0255146220   -0.0260622473   -0.0050187602
  -0.0252977241   -0.0260577141    0.0050133215
  -0.0187121923    0.0384569213    0.0004503411
  -0.0214881826    0.0345527028   -0.0000741732
   0.0250273641   -0.0375647997   -0.0000920661
   0.0224565585   -0.0342666138    0.0003489149
  -0.0238592418   -0.0138855574    0.0091378435
  -0.0262971392   -0.0125385614   -0.0090984111
   0.0209534284    0.0141170731    0.0100572367
   0.0207290979    0.0123334879   -0.0098323598
   0.0123114770   -0.0300189373    0.0039598953
   0.0171968989   -0.0154963340   -0.0015078746
  -0.0113870777    0.0318669035    0.0002388232
  -0.0177843221    0.0164165835   -0.0003149162
   0.0221918434    0.0845791329    0.0064624627
   0.0213744672    0.0855417065    0.0069912133
  -0.0189172844   -0.0841871049    0.0006167752
  -0.0176821825   -0.0845177746   -0.0006557247
  -0.0732194564    0.0377479125    0.0006803419
  -0.0689062865    0.0280498816   -0.0004305449
   0.0736650429   -0.0405498871    0.0049770307
   0.0695649765   -0.0292959697   -0.0017155017

5    
 -0.0078083052247003   0.0000000000000000  -0.0062474290326436
  -0.0069932060   -0.0023758264    0.0020313127
  -0.0027829907   -0.0004988499   -0.0013228152
   0.0010625515   -0.0062908338   -0.0043755445
   0.0031653646   -0.0003625484    0.0027144773
   0.0192740290   -0.0144150443    0.0318383009
  -0.0058101406   -0.0127204186   -0.0043066172
   0.0109173009    0.0142812382    0.0003736470
   0.0078665337    0.0132411886   -0.0001967275
   0.0090202188   -0.0109415118   -0.0041449192
   0.0084181531   -0.0156400904    0.0029320190
  -0.0129198593    0.0133780888   -0.0070610787
  -0.0082673330    0.0133741674    0.0058328869
   0.0256265848    0.0253944214   -0.0010871859
   0.0135814330    0.0367362981   -0.0044600594
  -0.0275274261   -0.0259679330   -0.0058205232
  -0.0277451916   -0.0259883883    0.0058347621
  -0.0195681509    0.0407798413   -0.0004322079
  -0.0212244931    0.0349974412    0.0000683889
   0.0132247059   -0.0416736027    0.0000972588
   0.0202417851   -0.0352898503   -0.0003442844
  -0.0198906546   -0.0124185128    0.0103401654
  -0.0174643470   -0.0137783786   -0.0103743585
   0.0228182256    0.0121928275    0.0094181150
   0.0230405526    0.0139767484   -0.0096322578
   0.0075777139   -0.0371352541   -0.0039217977
   0.0174148668   -0.0176020663    0.0015008733
  -0.0084418726    0.0352640662   -0.0002295435
  -0.0168316630    0.0166711322    0.0003190607
   0.0117542444    0.0855333453   -0.0042680159
   0.0134076675    0.0849444874   -0.0078462172
  -0.0150199694   -0.0859359828    0.0015816292
  -0.0162507420   -0.0856127333   -0.0015288155
  -0.0770112244    0.0359293501   -0.0006744958
  -0.0706570933    0.0295423176    0.0004321037
   0.0760002400   -0.0332955326   -0.0050226696
   0.0699941864   -0.0282936012    0.0017351336

5    
  0.0000000000000000   0.0100000000000000   0.0000000000000000
   0.0046289803    0.0004160482   -0.0000000000
   0.0013316523    0.0005202486   -0.0000000000
   0.0026543741    0.0061381942    0.0021769790
   0.0026543741    0.0061381942   -0.0021769790
  -0.0091090106   -0.0463103056   -0.0000000000
  -0.0079603813   -0.0142106747   -0.0000000000
   0.0092226485    0.0146556656   -0.0000000000
   0.0073180495    0.0134008883   -0.0000000000
   0.0092004620   -0.0088261977   -0.0072079667
   0.0092004620   -0.0088261977    0.0072079667
  -0.0091133171    0.0110609402   -0.0039688231
  -0.0091133171    0.0110609402    0.0039688231
   0.0208314618    0.0226381782    0.0023694905
   0.0208314618    0.0226381782   -0.0023694905
  -0.0268878487   -0.0250387914   -0.0052575929
  -0.0268878487   -0.0250387914    0.0052575929
  -0.0167235775    0.0447659736   -0.0000000000
  -0.0207173068    0.0353931835   -0.0000000000
   0.0188690622   -0.0387216505   -0.0000000000
   0.0211254677   -0.0343079421   -0.0000000000
  -0.0223210439   -0.0119735760    0.0087034385
  -0.0223210439   -0.0119735760   -0.0087034385
   0.0217060492    0.0114125171    0.0091093449
   0.0217060492    0.0114125171   -0.0091093449
   0.0132078838   -0.0348269080   -0.0000000000
   0.0173695212   -0.0151395582   -0.0000000000
  -0.0094031152    0.0325731633   -0.0000000000
  -0.0177264688    0.0159592551   -0.0000000000
   0.0158024175    0.0942283024   -0.0008491318
   0.0158024175    0.0942283024    0.0008491318
  -0.0159422575   -0.0856232145    0.0014462009
  -0.0159422575   -0.0856232145   -0.0014462009
  -0.0765636927    0.0288915820   -0.0000000000
  -0.0699144748    0.0275414247   -0.0000000000
   0.0730480342   -0.0306183210   -0.0000000000
   0.0701361333   -0.0280147779   -0.0000000000

5    
  0.0000000000000000  -0.0100000000000000   0.0000000000000000
  -0.0046160448   -0.0004313276   -0.0000000000
  -0.0013573197   -0.0005299926   -0.0000000000
  -0.0027006972   -0.0061726062   -0.0057842405
  -0.0027006972   -0.0061726062    0.0057842405
  -0.0133006042    0.0210066206   -0.0000000000
  -0.0070715564   -0.0119317317   -0.0000000000
   0.0130413439    0.0109428181   -0.0000000000
   0.0077166594    0.0127674695   -0.0000000000
   0.0061215816   -0.0161622624    0.0001263691
   0.0061215816   -0.0161622624   -0.0001263691
  -0.0061698843    0.0139458648   -0.0030333286
  -0.0061698843    0.0139458648    0.0030333286
   0.0322316884    0.0294581587   -0.0132308112
   0.0322316884    0.0294581587    0.0132308112
  -0.0261566166   -0.0269904022   -0.0055805934
  -0.0261566166   -0.0269904022    0.0055805934
  -0.0214874545    0.0344887523   -0.0000000000
  -0.0219776579    0.0341637944   -0.0000000000
   0.0194082358   -0.0404976504   -0.0000000000
   0.0215715814   -0.0352299673   -0.0000000000
  -0.0214537059   -0.0143553205    0.0107781694
  -0.0214537059   -0.0143553205   -0.0107781694
   0.0220479895    0.0149003992    0.0103666732
   0.0220479895    0.0149003992   -0.0103666732
   0.0067273058   -0.0325790096   -0.0000000000
   0.0172413875   -0.0179778358   -0.0000000000
  -0.0104252820    0.0345542747   -0.0000000000
  -0.0168858735    0.0171209746   -0.0000000000
   0.0182073829    0.0759130411    0.0029899865
   0.0182073829    0.0759130411   -0.0029899865
  -0.0180051680   -0.0844764987    0.0007450961
  -0.0180051680   -0.0844764987   -0.0007450961
  -0.0736698628    0.0447102078   -0.0000000000
  -0.0696472698    0.0300698335   -0.0000000000
   0.0770734746   -0.0431617068   -0.0000000000
   0.0694137961   -0.0296062713   -0.0000000000

6    
  0.0078083052247003   0.0000000000000000   0.0062474290326436
   0.0031763887    0.0006483526    0.0015648579
   0.0068187369    0.0023549475   -0.0017601535
  -0.0031784674    0.0003604298   -0.0027248704
  -0.0010693452    0.0062622081    0.0043852047
  -0.0128324353   -0.0131422306    0.0042981563
  -0.0386124057   -0.0116556393   -0.0332045983
   0.0108010068    0.0126433945    0.0001906410
   0.0076950121    0.0115675178   -0.0003607374
   0.0068494816   -0.0093573566   -0.0028872419
   0.0062666560   -0.0140464310    0.0041137185
  -0.0070360298    0.0116677425   -0.0058762259
  -0.0024880708    0.0116625407    0.0070805584
   0.0396038972    0.0151126891    0.0047022158
   0.0273487498    0.0266373541    0.0010814801
  -0.0252734416   -0.0261004264   -0.0058716853
  -0.0254992960   -0.0261198604    0.0058825076
  -0.0192838396    0.0393490692   -0.0000712000
  -0.0208943271    0.0336413404    0.0004449409
   0.0202307793   -0.0391538132    0.0003535658
   0.0272898783   -0.0326682936   -0.0000942401
  -0.0263564528   -0.0125155324    0.0103506578
  -0.0239217814   -0.0138769198   -0.0103861506
   0.0207005348    0.0123129646    0.0095679480
   0.0209340407    0.0141332039   -0.0094023270
   0.0098029496   -0.0325014329   -0.0015139785
   0.0197104805   -0.0129660493    0.0039469947
  -0.0104022458    0.0334651317   -0.0003206531
  -0.0187861904    0.0148801603    0.0002297251
   0.0212821075    0.0854979179    0.0085313205
   0.0222435865    0.0846066298    0.0043871206
  -0.0176560326   -0.0844758858    0.0016208397
  -0.0188967486   -0.0841521446   -0.0017789551
  -0.0742601080    0.0360795762   -0.0004356172
  -0.0678585796    0.0296940992    0.0006743161
   0.0749044236   -0.0373230538   -0.0017276260
   0.0686470876   -0.0325222001    0.0050094907

6    
 -0.0078083052247003   0.0000000000000000  -0.0062474290326436
  -0.0031895073   -0.0006677329   -0.0015625971
  -0.0067702876   -0.0023249790    0.0017378880
   0.0031893289   -0.0003502656   -0.0008393545
   0.0010789649   -0.0063165556   -0.0008351007
  -0.0094351518   -0.0124464642   -0.0043146824
   0.0232332695   -0.0144731888    0.0316686273
   0.0114948294    0.0129545688   -0.0001941599
   0.0073454726    0.0145901393    0.0003732094
   0.0084341221   -0.0156617191   -0.0041230386
   0.0090300879   -0.0109789879    0.0028987627
  -0.0082416501    0.0133545627   -0.0011408809
  -0.0129021835    0.0133602691   -0.0001141355
   0.0136162920    0.0367529373   -0.0153594663
   0.0256158428    0.0254341119    0.0098029106
  -0.0277630636   -0.0259380499   -0.0049735422
  -0.0275440460   -0.0259048624    0.0049712718
  -0.0190008841    0.0398661459    0.0000724373
  -0.0218126903    0.0359226357   -0.0004339140
   0.0180171776   -0.0400843859   -0.0003458466
   0.0153918475   -0.0369033349    0.0000964365
  -0.0174238776   -0.0137887486    0.0091245199
  -0.0198423683   -0.0124282658   -0.0090866462
   0.0230657941    0.0139822179    0.0099163203
   0.0228424245    0.0121745369   -0.0100725238
   0.0100209289   -0.0346465275    0.0015077318
   0.0149665085   -0.0201226781   -0.0039102081
  -0.0094341789    0.0336786900    0.0003275754
  -0.0158262791    0.0181954206   -0.0002238048
   0.0134920334    0.0849889780   -0.0050251324
   0.0117206855    0.0854960587   -0.0065729714
  -0.0162923437   -0.0856245028    0.0005724294
  -0.0150517777   -0.0859566771   -0.0004038714
  -0.0759812964    0.0375643974    0.0004376626
  -0.0717111207    0.0279393374   -0.0006715891
   0.0753287326   -0.0363361323    0.0017483798
   0.0703383639   -0.0253009490   -0.0050526967

6    
  0.0000000000000000   0.0100000000000000   0.0000000000000000
   0.0015571750    0.0005556157   -0.0000000000
   0.0045414722    0.0003307648   -0.0000000000
   0.0026169180    0.0061561858   -0.0057347375
   0.0026169180    0.0061561858    0.0057347375
  -0.0115982871   -0.0139348416   -0.0000000000
  -0.0057567480   -0.0465869565   -0.0000000000
   0.0109288376    0.0131156504   -0.0000000000
   0.0055596988    0.0149330728   -0.0000000000
   0.0091631120   -0.0088305844    0.0002053136
   0.0091631120   -0.0088305844   -0.0002053136
  -0.0091306429    0.0110761166   -0.0030585710
  -0.0091306429    0.0110761166    0.0030585710
   0.0209515348    0.0225953631   -0.0131289245
   0.0209515348    0.0225953631    0.0131289245
  -0.0268480072   -0.0250679789   -0.0056022690
  -0.0268480072   -0.0250679789    0.0056022690
  -0.0185136666    0.0402111230   -0.0000000000
  -0.0189295642    0.0399435409   -0.0000000000
   0.0189110483   -0.0391511782   -0.0000000000
   0.0210861107   -0.0338240172   -0.0000000000
  -0.0223507881   -0.0119901469    0.0107702613
  -0.0223507881   -0.0119901469   -0.0107702613
   0.0216634839    0.0114055596    0.0103101093
   0.0216634839    0.0114055596   -0.0103101093
   0.0099716092   -0.0321410927   -0.0000000000
   0.0205680641   -0.0177071905   -0.0000000000
  -0.0103430818    0.0329949319   -0.0000000000
  -0.0167652188    0.0155451718   -0.0000000000
   0.0157669514    0.0942322752    0.0027508341
   0.0157669514    0.0942322752   -0.0027508341
  -0.0159162311   -0.0856120144    0.0007775412
  -0.0159162311   -0.0856120144   -0.0007775412
  -0.0752480860    0.0355616125   -0.0000000000
  -0.0711565160    0.0208372333   -0.0000000000
   0.0754867263   -0.0360395350   -0.0000000000
   0.0678677646   -0.0225734569   -0.0000000000

6    
  0.0000000000000000  -0.0100000000000000   0.0000000000000000
  -0.0015947285   -0.0005812661   -0.0000000000
  -0.0045287541   -0.0003607345   -0.0000000000
  -0.0026734709   -0.0061884518    0.0022565991
  -0.0026734709   -0.0061884518   -0.0022565991
  -0.0106865178   -0.0116561763   -0.0000000000
  -0.0093867551    0.0207474777   -0.0000000000
   0.0113490061    0.0124891466   -0.0000000000
   0.0094440774    0.0112233788   -0.0000000000
   0.0061582170   -0.0161534733   -0.0071430639
   0.0061582170   -0.0161534733    0.0071430639
  -0.0061504569    0.0139285787   -0.0039576932
  -0.0061504569    0.0139285787    0.0039576932
   0.0321147252    0.0295060675    0.0022983675
   0.0321147252    0.0295060675   -0.0022983675
  -0.0261941567   -0.0269665075   -0.0052339190
  -0.0261941567   -0.0269665075    0.0052339190
  -0.0197540852    0.0390143317   -0.0000000000
  -0.0237079819    0.0296300129   -0.0000000000
   0.0193676125   -0.0400653287   -0.0000000000
   0.0216256069   -0.0357044689   -0.0000000000
  -0.0214277495   -0.0143360616    0.0087037062
  -0.0214277495   -0.0143360616   -0.0087037062
   0.0220847920    0.0149044587    0.0091678777
   0.0220847920    0.0149044587   -0.0091678777
   0.0098524582   -0.0350297886   -0.0000000000
   0.0141393949   -0.0156427325   -0.0000000000
  -0.0094918314    0.0341420028   -0.0000000000
  -0.0178377462    0.0175276735   -0.0000000000
   0.0182415426    0.0759205288   -0.0005173174
   0.0182415426    0.0759205288    0.0005173174
  -0.0180227790   -0.0845031988    0.0014060598
  -0.0180227790   -0.0845031988   -0.0014060598
  -0.0749661291    0.0381066232   -0.0000000000
  -0.0684134392    0.0367043934   -0.0000000000
   0.0747141489   -0.0376369462   -0.0000000000
   0.0716143359   -0.0351314802   -0.0000000000

9    
  0.0100000000000000   0.0000000000000000   0.0000000000000000
   0.0062007508   -0.0025966433    0.0039335535
   0.0060076346   -0.0026299073   -0.0038613874
   0.0004328943   -0.0046074840   -0.0017649924
   0.0006229319   -0.0014923582    0.0017640982
  -0.0125158003   -0.0112473536   -0.0004777466
  -0.0088998728   -0.0115613401    0.0004741789
   0.0148774527    0.0113300730   -0.0036423792
   0.0112191910    0.0115891396    0.0036475890
  -0.0262172562   -0.0148380142   -0.0031157627
   0.0065158125   -0.0120503527    0.0034672940
  -0.0057824914    0.0144033918   -0.0035273237
  -0.0072785818    0.0126936910    0.0035329170
   0.0273974980    0.0263335566   -0.0054132769
   0.0268441914    0.0262483386    0.0054254472
  -0.0215409781   -0.0283433188   -0.0054216350
  -0.0259729158   -0.0266078785    0.0054316433
  -0.0225986995    0.0451558175    0.0077463345
  -0.0248277406    0.0403934188   -0.0076924126
   0.0201066171   -0.0393885083    0.0000951081
   0.0223147031   -0.0344543820   -0.0001031098
  -0.0227766098   -0.0136230121    0.0097723785
  -0.0224193736   -0.0126264382   -0.0098163636
   0.0211953479    0.0104147452    0.0095719816
   0.0234239142    0.0131069433   -0.0096965001
   0.0111304541   -0.0331087164   -0.0010121212
   0.0185062577   -0.0160910706    0.0009904513
  -0.0116754074    0.0337520533   -0.0005717836
  -0.0190453878    0.0167261881    0.0005602227
   0.0232059709    0.0866827091    0.0009675604
   0.0177756310    0.0846003453   -0.0010368270
  -0.0249332754   -0.0837374387    0.0011538541
  -0.0183122961   -0.0850398280   -0.0011608571
  -0.0659764324    0.0381021613   -0.0016338501
  -0.0606865136    0.0301679206    0.0014102194
   0.0744868657   -0.0378279730    0.0003229794
   0.0691955140   -0.0298284752   -0.0003194820

9    
 -0.0100000000000000   0.0000000000000000   0.0000000000000000
  -0.0061836253    0.0025617332   -0.0038688707
  -0.0059815312    0.0025894383    0.0037988003
  -0.0004110220    0.0046256006   -0.0017779734
  -0.0006111982    0.0014776278    0.0017776815
  -0.0097661030   -0.0143211612    0.0004635524
  -0.0061260147   -0.0145665418   -0.0004613410
   0.0073737309    0.0142837824    0.0037104977
   0.0037756033    0.0145812004   -0.0037158520
   0.0414573719   -0.0103803180   -0.0038876161
   0.0087715728   -0.0129654669    0.0035417694
  -0.0095260302    0.0105871903   -0.0034840711
  -0.0080363209    0.0123174682    0.0034785552
   0.0256141017    0.0257163540   -0.0054310984
   0.0261778897    0.0257816819    0.0054187417
  -0.0315325335   -0.0236321976   -0.0054199761
  -0.0270813235   -0.0254160103    0.0054100259
  -0.0157430329    0.0340988466   -0.0077340136
  -0.0179399868    0.0291824901    0.0076802146
   0.0181546506   -0.0398413190   -0.0000963864
   0.0203755252   -0.0350912625    0.0001040059
  -0.0209742536   -0.0126738402    0.0097048296
  -0.0213433717   -0.0136814631   -0.0096608683
   0.0228162541    0.0159991592    0.0099053731